# vtk DataFile Version 1.0
Net Charge Density
ASCII
DATASET STRUCTURED_POINTS
DIMENSIONS 256 128 1
ORIGIN 0 0 0
SPACING 0.15625 0.15625 1
POINT_DATA 32768
SCALARS rhonet float
LOOKUP_TABLE default
0.000278485
-0.00035275
9.73793e-05
-1.13016e-06
-0.000223071
0.000356347
-2.07168e-05
-9.46152e-05
1.28758e-05
-0.000274866
0.000363193
0.000123327
0.000309594
-0.000155488
-0.000436542
0.000368304
0.000116438
-6.83793e-05
-7.38294e-05
-0.000380077
0.000326517
2.67401e-05
0.000131319
-2.46578e-05
-0.000166767
0.000479555
0.000115037
0.000142819
9.99711e-05
-0.000392838
0.000145882
-1.99847e-05
0.000193422
-5.74139e-05
-0.000200596
0.000307025
6.52899e-05
0.000104438
-0.000159358
-0.000268556
0.00028026
-4.11829e-05
0.000163477
0.000162225
-0.00021999
0.000280341
9.04032e-05
8.36877e-05
-0.000108683
-0.000253126
0.000520208
1.54533e-05
8.50984e-05
0.000115083
-0.000479436
0.00030754
-1.23978e-05
0.000250871
-5.10974e-05
-0.000188403
0.00031735
8.40516e-05
0.000233188
-0.000162666
-0.000342278
0.000230165
-0.000142104
0.000193247
4.75186e-05
-0.000197991
0.000234482
-6.09708e-05
6.09441e-05
5.73788e-06
-0.000115177
0.000370354
8.35768e-05
0.000168532
-9.10966e-05
-0.000350832
0.000180237
3.08012e-06
6.29479e-05
3.87329e-05
-0.000106213
0.000410312
-3.72829e-05
9.73791e-06
-6.32403e-06
5.5236e-05
0.000314645
-2.6979e-05
9.25575e-05
7.73985e-05
-0.000332698
0.000434342
-0.000231869
7.64937e-05
-6.33626e-05
-0.000159987
0.00017749
0.000112679
0.000150068
-0.000160614
-0.000248617
0.000531793
-1.96192e-05
4.8463e-05
-0.00014957
-0.00030062
0.00011945
2.36745e-05
0.000190023
-6.99208e-05
-0.000427984
0.000400306
0.000137308
0.000263287
7.72511e-05
-0.00036008
0.00024137
1.67277e-06
9.17905e-05
-2.92335e-05
-0.000230103
0.000155673
-1.63333e-05
0.000116189
-0.000112527
-0.000152874
0.000402517
2.88163e-05
0.000158417
5.06826e-06
-0.000370965
0.000359716
0.000208276
0.000164391
-7.59073e-05
-0.000374497
0.00024024
4.46734e-05
5.52953e-05
-2.19564e-05
-0.000313446
0.000416492
3.41823e-05
0.000116659
3.47823e-05
-0.000139121
0.000259974
2.16059e-05
5.72575e-05
0.000192729
-0.000227342
0.000317085
-0.000105057
0.000211801
-4.88597e-05
-0.000278646
0.000354887
-3.88224e-05
-7.28841e-06
0.000161033
-0.000228474
0.000202056
0.000116562
0.00031762
-4.1623e-05
-0.000256213
0.000251985
1.93185e-05
0.00010814
-0.000187322
-0.000237184
0.000434581
-8.24826e-06
2.35912e-05
-4.44506e-05
-0.000259417
0.000580412
0.000140987
8.08892e-05
-2.98634e-05
-0.000352846
0.000268582
4.37381e-05
-2.61609e-05
-9.14438e-05
-9.11328e-05
0.000429799
0.000129514
1.10583e-06
-0.000180718
-0.000398736
0.00055427
-1.58293e-05
8.81535e-05
0.000112929
-0.000386398
0.000375845
0.000131175
2.27876e-05
-9.13033e-05
-0.000184298
0.000279896
1.88106e-05
0.000234362
-6.85607e-05
-0.000217492
0.000140366
-9.31601e-05
0.000150931
-7.04499e-06
-0.000290047
0.000401073
1.152e-05
9.56436e-05
-9.92347e-06
-0.000201113
3.77411e-05
6.90172e-05
0.000238439
-4.16898e-05
-0.000187174
0.000474188
-0.000214828
0.000125231
7.03082e-05
-0.00025418
0.0003799
-8.54066e-05
5.88377e-05
-6.24205e-05
-0.000205053
0.000340539
9.11485e-05
0.000176979
9.62359e-05
-0.000117697
0.000259417
-0.000199759
0.000301732
7.35845e-05
-0.000403651
0.000328973
-4.85958e-05
0.00023029
-5.09946e-06
-0.000147955
0.000349736
-6.28046e-05
4.17861e-06
0.000100048
-0.000324591
0.000337386
0.000167757
-0.000285476
7.44628e-05
1.76815e-05
-0.000224699
0.000246133
-4.44481e-05
2.84658e-05
2.30626e-05
-0.000327336
0.000217885
2.31193e-05
0.000220349
-0.00012507
-0.000377278
0.000253707
-7.39883e-05
1.00257e-05
0.000104271
-0.000171726
0.000279604
-9.79302e-05
7.95326e-05
-0.000102432
-0.000482793
0.000156989
5.05886e-05
3.00743e-05
-4.2422e-05
-0.000276193
0.000142931
-6.0753e-05
2.28491e-05
-6.20377e-05
-0.000240817
0.000311221
-6.31413e-05
7.54736e-05
-8.03649e-05
-0.000274246
0.000190395
-7.36037e-05
-4.82146e-05
-2.17773e-05
-0.000426287
0.000213365
7.26667e-05
9.20289e-05
-7.9812e-06
-0.000213817
0.000292163
-2.76614e-05
0.000122163
2.8857e-06
-0.000465159
0.000155974
6.53652e-05
0.000253212
-0.000160618
-0.000226561
0.000228392
-0.000125867
0.000194366
-8.50988e-05
-0.000335146
0.000388924
-2.71186e-05
0.000100129
4.61272e-05
-0.000257735
0.000238397
-0.000205141
-4.37414e-05
6.48864e-06
-0.000244697
0.000329064
-6.41956e-05
2.26316e-05
-2.88474e-05
-0.000255196
0.000153566
-8.61704e-05
0.000158054
6.99704e-05
-0.000337872
0.00021607
-6.16176e-05
6.8533e-05
1.68877e-05
-0.000334376
0.000102683
-5.67012e-05
8.2748e-06
-7.58821e-05
-0.000301776
0.000234821
-1.64458e-05
9.01233e-05
-9.08874e-05
-0.000193216
0.000233655
-1.42769e-05
2.87229e-05
5.66475e-05
-0.000287185
0.000272061
-0.000229512
0.000178971
-0.000126808
-0.000387894
0.000402011
-8.79072e-05
-2.12346e-05
-3.90641e-05
-0.000333446
0.000314837
4.4762e-05
-2.52514e-05
-0.000147025
-0.000300519
0.000193797
-9.55315e-05
7.34776e-05
5.28271e-05
-0.000255113
0.000445695
-7.25602e-05
3.33005e-05
-9.20094e-05
-0.000406287
0.000181327
0.000107919
0.000131368
-0.000191084
-0.000258212
0.000294505
-0.000102693
4.36546e-05
-7.33219e-05
-0.000464226
0.00042901
0.000146805
0.000185568
-7.48652e-05
-0.00049365
0.000213826
-1.04727e-06
0.000127608
-8.07923e-05
-0.000249892
0.000213223
-0.000111641
5.4532e-05
-4.99099e-05
-0.000388958
0.000112735
-5.41668e-05
6.20552e-05
-0.00011688
-0.000313304
0.000328449
5.52575e-05
2.5166e-05
1.95854e-05
-0.000320936
0.000279084
-5.7269e-05
8.81646e-05
-4.43556e-05
-0.000284712
0.000303741
5.81396e-05
9.16953e-05
-2.26148e-06
-0.000347444
0.000231249
-5.34143e-05
6.20568e-05
5.21854e-05
-0.000310447
0.000229203
-6.12105e-05
0.000106649
-8.20414e-05
-0.000417335
0.000250321
-1.37137e-06
9.63421e-05
1.53892e-05
-0.000323485
6.25551e-05
1.45554e-06
0.000175847
-3.50806e-05
-0.000348418
0.00024564
-0.000154329
6.50797e-05
-5.24811e-05
-0.000279321
0.000266139
6.73688e-05
-0.000103602
-3.34424e-05
-0.000210987
0.000205272
-4.30007e-05
0.000117462
-6.09611e-05
-0.000292491
0.000262373
1.70222e-06
9.52381e-05
-3.871e-05
-0.000320598
0.000208079
-3.39681e-05
3.05005e-05
-0.000140008
-0.000187264
0.000247024
-6.697e-05
-9.69088e-06
-2.945e-05
-0.000214584
0.000373229
1.70257e-06
3.86431e-05
-0.000121539
-0.000434763
0.000201636
-2.30806e-05
3.64789e-05
-6.67304e-05
-0.000322276
0.000244971
-1.08428e-05
0.000223588
3.80294e-06
-0.000386699
0.000282359
-0.000129939
8.93892e-05
1.9696e-05
-0.00039677
0.00021224
4.66182e-05
1.33282e-05
-0.000143641
-0.000158998
0.000237137
-6.37504e-05
6.90813e-05
3.58885e-05
-0.000197344
0.000101324
0.000140427
-0.000226805
5.11473e-05
-4.38369e-05
-0.000368845
0.000240855
-6.73477e-05
-6.74913e-05
6.79409e-05
-0.000268837
0.000223766
4.40411e-05
0.000124725
-0.000101591
-0.000267516
0.00025272
-3.25475e-05
0.00020889
-0.000149772
-6.72876e-05
0.000260492
-5.0909e-05
0.000108755
1.40648e-05
-0.000392392
0.0003549
-0.000131771
8.41019e-05
-8.62628e-05
-0.00025469
0.000312902
-6.82441e-05
7.5639e-05
-8.05432e-05
-0.000250416
0.000302745
-7.94036e-05
0.00013899
-2.63972e-06
-0.00027238
0.000317865
-1.43189e-05
4.5086e-05
-0.000141967
-0.000274024
0.000124598
-9.25449e-05
0.000166862
-0.000106261
-0.000210959
0.000292706
-0.000127241
6.38971e-05
5.57989e-05
-0.000422039
0.000263503
3.37824e-05
6.75065e-05
3.67399e-05
-0.000256974
0.000192898
-0.000121055
-4.27198e-06
-2.97616e-06
-0.000254136
0.000277617
-0.000146136
0.000125514
-5.39264e-05
-0.000385259
0.000282638
-0.000108488
0.000203966
-3.1055e-06
-0.000297745
0.00031185
-0.000162721
1.14227e-06
-0.000150511
-0.000218538
0.00036821
-0.000148544
0.000124444
9.7336e-06
-0.000325185
0.000467507
-0.000254752
4.41007e-05
-4.81335e-05
-0.000170974
0.000319229
6.89062e-07
0.000106792
-3.77987e-05
-0.00040431
0.00049892
-2.02613e-05
-3.3261e-05
-7.08259e-06
-0.000139427
0.000280642
-0.000309147
4.17667e-05
-2.22054e-05
-0.000197271
0.000281653
-6.21522e-05
0.000168013
-5.3281e-06
-0.000370253
0.000341459
-4.21342e-05
0.000173968
3.24236e-05
-0.000264677
0.000353557
1.18559e-05
9.85304e-05
-2.19174e-05
-0.000201203
0.000301237
-0.00011179
-2.27636e-05
7.88246e-05
-0.000323
0.000246602
2.03864e-05
9.26303e-05
-4.61095e-05
-0.000320305
0.000338733
1.88898e-05
5.24847e-05
-8.86836e-05
-0.000112413
8.70554e-05
-7.65653e-05
0.000120951
-0.00014892
-0.000310344
0.000437079
-0.000237159
9.79371e-05
-3.01105e-05
-0.00040729
0.000384132
-1.72857e-05
9.55011e-05
-5.69796e-05
-0.000406488
0.00027189
-3.66364e-05
5.74876e-05
-0.000129102
-0.000336733
0.000376905
-4.29463e-05
-5.96247e-05
4.41896e-05
-0.000282839
0.000250858
4.07567e-05
-0.000100777
-1.66342e-05
-0.00023032
0.000294877
-0.000114353
-2.88717e-05
-0.00011288
-0.00034027
0.000416331
-5.26197e-05
9.95934e-05
-6.71784e-05
-0.000353115
0.000285877
3.43836e-05
6.48147e-05
-0.000192101
-0.00020386
0.000298008
-0.000164281
8.59483e-05
-4.25228e-05
-0.000309071
0.000406364
7.47603e-05
4.90467e-05
2.32456e-05
-0.000364529
0.000259932
-5.05638e-06
0.000187865
-4.81536e-05
-0.000220634
0.000352505
-0.000150828
5.39459e-05
-2.43727e-06
-0.000409297
0.000203388
-2.368e-06
7.38655e-05
-0.000101351
-0.000207486
0.000278437
-2.207e-05
0.000102999
7.77303e-05
-0.000270832
0.000255004
-0.000205746
0.000152099
0.000106939
-0.000328426
0.000181183
-2.85506e-05
5.05528e-05
-5.16872e-05
-0.000318169
0.000475481
-3.01946e-05
5.98653e-05
-5.46759e-05
-0.000220242
0.000310843
0.000107629
-1.20804e-05
-9.06267e-05
-0.000250651
0.000309879
-1.41524e-05
4.21945e-05
-6.01932e-05
-0.000258698
0.000352091
-7.77545e-05
6.66361e-05
8.27527e-06
-0.00029857
0.000453896
-0.00014149
5.43074e-05
9.52953e-05
-0.000316726
0.000100143
-1.71055e-05
7.54329e-05
-3.94518e-05
-0.000143071
0.000347968
3.72963e-05
0.000121528
-0.000105379
-0.000250143
0.000226266
8.22146e-05
-0.000193709
5.95632e-05
-1.52297e-05
-0.000383551
0.000432612
1.05924e-05
1.51442e-05
-1.35705e-06
-0.000257205
0.000193987
1.60018e-05
-4.70225e-06
-7.07145e-05
-0.000184441
0.000238829
4.44299e-05
6.6391e-05
-9.92231e-05
-0.000146486
0.000195111
-0.000101861
4.95604e-05
-3.03646e-05
-0.000240602
0.000140208
-0.000186364
0.000170289
6.42532e-05
-0.000207176
0.000393564
-5.48473e-05
6.44046e-05
0.000155558
-0.000407857
0.000183031
-3.17651e-05
0.000128229
-0.000151702
-0.000286659
0.000204604
4.06462e-05
0.000230565
-3.69831e-05
-0.000210121
0.000375335
-0.000216694
7.29482e-06
-3.7036e-05
-0.000371618
0.000315425
-6.47657e-05
8.30116e-05
-5.9154e-05
-0.000261528
0.000139671
-0.00012753
-4.00469e-07
-1.888e-05
-0.000278486
0.000275028
-0.000163971
0.000165992
-2.3652e-05
-0.000166665
0.000222818
-7.49445e-05
0.000126087
7.54616e-05
-0.000226599
0.000163706
6.4059e-05
0.0003182
-7.88694e-05
-0.000449296
0.000419643
4.91927e-05
3.76732e-05
-0.000213219
-0.000209988
0.000337409
-0.000136267
0.000161059
-5.24019e-05
-0.000376287
0.000368295
-3.36319e-05
5.07361e-06
1.70118e-05
-0.000253758
0.000207867
-0.000222582
0.000108737
-9.66676e-05
-0.000321264
0.000406623
-3.97556e-05
-8.57232e-05
-1.23191e-05
-0.000250744
0.00037684
-1.66348e-05
0.000107809
-3.60311e-05
-0.000312829
0.000291079
-3.58722e-05
0.000194943
9.7875e-05
-0.000264215
0.000424611
-8.70673e-05
0.000147823
-5.2782e-05
-0.000455789
0.000257913
-4.98281e-05
0.000116213
-8.8606e-05
-0.000320683
0.000247635
6.86606e-05
-0.000106864
1.36164e-05
-0.00022358
0.000183644
-5.94626e-06
9.46973e-05
-2.43721e-05
-0.000177579
0.000204379
-6.62645e-05
0.000125711
-8.18772e-06
-0.000257218
0.000217077
-4.53993e-05
0.000162035
4.58169e-05
-0.000289011
0.000351477
-0.000103089
7.39808e-06
-4.40569e-05
-0.000346925
0.000277165
-9.11051e-05
0.000134657
1.04266e-05
-0.000357932
0.000284937
-2.95377e-05
8.56933e-05
-8.81993e-05
-0.000259107
0.000293298
-3.96889e-05
2.04744e-05
-2.06616e-05
-0.000227408
0.00031343
2.28073e-05
0.000138959
-9.01753e-05
-0.000369651
0.000283302
-2.69114e-05
0.000129505
6.86231e-05
-0.000235781
0.000337032
-2.24088e-06
0.000192345
9.46644e-05
-0.000300194
0.000225315
5.15739e-05
0.000150084
-5.63862e-05
-0.000167031
0.000298504
-0.000161131
-1.65872e-05
-0.000100513
-0.000348346
8.07487e-05
6.86948e-05
0.000141503
3.3516e-06
-0.00031367
0.000227918
-8.74974e-05
0.000129126
-2.99499e-05
-0.000177518
0.000365556
8.91788e-06
0.000126952
-0.0001229
-0.000344191
0.00030033
-7.41753e-05
9.94412e-05
-1.19411e-05
-0.000248675
0.000363085
-0.000113889
-5.4318e-05
7.59936e-05
-0.00029029
0.000234092
-0.000103829
0.000178364
2.37175e-05
-0.000306725
0.000181067
5.22961e-06
0.000298535
-4.65536e-05
-0.000577331
0.000253391
-2.70824e-05
6.21075e-05
-4.53113e-05
-0.000230871
0.00013685
-0.000107707
5.48416e-05
-2.51899e-05
-0.000170432
0.000173435
3.48386e-05
4.96946e-05
-8.16027e-05
-0.000400996
0.000185365
2.30875e-05
3.97913e-05
-7.15923e-05
-0.000205402
0.000245599
-9.74135e-05
3.74495e-05
-0.000144875
-0.000210383
0.000423054
1.20231e-05
8.60953e-05
-8.49142e-05
-0.000237558
0.000145309
4.42262e-06
-1.25472e-06
-0.000222811
-0.000193668
0.000347966
0.000123901
-0.00024458
6.77323e-05
-6.15499e-06
-0.000270647
0.000385391
-8.30367e-05
0.000177597
8.53854e-05
-0.000242451
0.000302063
-0.000188664
-4.36697e-05
8.74626e-05
-0.000158985
0.000140522
-8.29222e-05
-4.12888e-05
-8.92186e-05
-0.000155625
0.000264961
5.71737e-05
5.97341e-05
-1.453e-05
-0.000219659
0.000358632
8.54279e-06
9.6523e-05
-0.000117278
-0.000360753
0.000338986
2.18675e-05
7.9995e-05
1.45913e-05
-0.000196476
0.000310653
-2.61113e-05
8.51845e-05
-2.88386e-05
-0.000207867
0.000129087
-7.53824e-06
0.000151627
-5.65418e-05
-0.000185848
0.000281928
-0.000102156
1.63716e-05
-8.32272e-05
-0.000316043
0.000450142
-0.000107022
0.000114969
-2.11585e-06
-0.000172891
0.000365614
-5.20009e-05
0.000120315
-0.000186238
-0.000353435
0.000343783
-0.000146726
4.6752e-05
-7.48748e-06
-0.000205953
0.000389097
-3.04319e-05
5.96393e-05
-6.64629e-05
-0.000283113
0.000275316
0.000126153
0.000259391
-0.000205984
-0.00031457
0.000318871
-2.86996e-05
0.000107852
-0.000106815
-0.000215035
0.000226949
-0.000179863
0.000149627
7.15151e-05
-0.000315411
0.000234309
-0.000105441
7.25929e-05
-5.34195e-06
-7.30434e-05
0.000173787
-5.33591e-05
8.58725e-05
-6.7579e-05
-0.000146444
0.000361976
-8.88765e-05
8.50623e-05
3.4788e-05
-0.000346309
9.95391e-05
-0.000141772
4.56424e-05
5.85425e-05
-0.000282342
0.000317502
5.3484e-05
0.000116319
-0.000194606
-0.000412535
0.00030381
-8.92171e-05
0.000161175
7.79177e-05
-0.000244124
0.000137215
-0.000110097
0.00011866
-3.86739e-05
-0.000384365
0.000370326
8.6106e-05
1.13964e-05
-6.49281e-05
-0.000251566
0.000202572
-0.000129561
0.000220457
-0.000122051
-0.000212084
0.000294506
-0.000253005
-1.85375e-05
-1.19341e-05
-0.0002606
0.000144602
-7.00831e-05
8.75365e-05
2.45632e-05
-0.00025606
0.000357526
-9.01804e-05
4.18271e-05
-8.49126e-05
-0.000190306
0.000242865
-0.000150597
4.80172e-05
-7.78725e-06
-0.000116514
0.000361882
-0.000103412
2.54151e-05
-8.93783e-05
-0.000284571
0.00033447
-3.66715e-05
0.000131172
-9.85849e-05
-0.000317854
0.000258343
-2.42607e-05
0.000135506
1.30492e-05
-0.00012185
0.000171922
-0.000143331
1.96621e-05
-0.000124112
-0.000246475
0.000310545
-0.000116586
0.000193214
-0.000158834
-0.000447788
0.000231048
4.69825e-05
0.000205424
-9.86725e-05
-0.000247509
0.000331197
-0.000113615
0.000113561
4.35417e-06
-0.000290885
0.000384132
7.07358e-05
9.74218e-05
-0.000200965
-0.000236671
0.000189045
-7.63282e-05
2.48296e-05
-3.71085e-06
-0.000204505
0.000220288
-0.000146625
0.000104325
-1.47135e-05
-0.000170983
0.000342756
-0.000142066
-3.35828e-05
4.36683e-05
-0.000263377
0.000183436
-8.72693e-05
0.000106259
7.92898e-05
-0.000318221
0.000136672
-4.24781e-05
8.24647e-05
-8.34691e-05
-0.000312568
0.000218376
-6.62645e-05
0.000267667
3.73279e-05
-0.000298389
0.000292703
-0.000194936
6.80727e-05
1.31052e-05
-0.000355458
0.000267602
8.62974e-05
1.03265e-05
-0.000157978
-0.000175118
0.000295548
-0.000186296
0.000140243
6.85855e-05
-0.000263422
0.000281538
-1.1427e-05
1.63144e-06
-0.000112331
-0.000216201
0.000367785
-4.40431e-05
3.63451e-05
-6.52057e-05
-0.000334267
0.000113556
-7.19205e-05
0.000151643
-2.07754e-05
-0.000270985
0.000163947
-8.16747e-05
0.000172827
-7.58299e-05
-0.000194945
7.582e-05
0.000191941
-0.000259203
6.61595e-05
1.81766e-05
-0.000183679
0.00036838
-4.77773e-05
5.39504e-06
-6.59113e-05
-0.000255998
0.000448805
-4.32796e-05
-4.8253e-05
-9.24827e-06
-0.000259487
0.000157633
7.25624e-05
9.02755e-05
-0.000119748
-0.000146083
0.000192697
-6.43005e-05
0.000142288
-0.000157073
-0.000195839
0.000293107
-7.32706e-05
0.000155406
-0.000144821
-0.000276187
0.000408128
-7.14198e-05
0.00017985
-0.000129667
-0.000265715
0.000300213
-0.000150325
3.19944e-05
-7.59132e-05
-0.000330546
0.000181645
0.0001122
8.11466e-05
-0.000168279
-0.00029035
0.000302494
0.000148634
0.000103354
-0.000101181
-0.000258602
0.000280895
2.57298e-05
7.64186e-05
-0.000144919
-0.000242402
0.000244799
-0.000192177
0.000171429
4.09201e-05
-0.000153193
0.000328088
-6.78767e-05
-4.35731e-05
-2.53486e-05
-0.000209709
0.000423036
-6.09695e-05
2.6817e-05
-0.000105396
-0.000187178
0.000253948
-3.9991e-05
1.22096e-05
-4.82895e-05
-0.000272459
6.97308e-05
-0.000125785
0.000151921
-1.90903e-05
-0.000322745
0.000236605
-0.000106771
8.48508e-05
-5.8184e-05
-0.000365372
0.000283218
-8.81644e-05
5.20798e-05
2.92202e-05
-0.000215054
0.000127949
3.44669e-05
0.000126908
-2.22126e-05
-0.00035032
0.000420445
-6.70456e-05
0.000102291
-1.40246e-05
-0.000256294
0.000388475
-9.83393e-05
-2.67155e-05
-1.4943e-05
-0.000262838
0.000375511
-4.66518e-05
9.02809e-05
-5.69613e-05
-0.000294137
9.3431e-05
-7.73262e-05
0.000154814
-3.33472e-05
-0.000301366
0.00023916
2.13294e-05
8.45036e-05
-0.000106243
-0.000340614
0.000492601
3.08035e-07
-8.24919e-06
-6.61216e-05
-0.000251024
0.000402761
1.38888e-05
0.000173872
-1.28329e-05
-0.000323738
9.78615e-05
-4.09117e-05
0.000212714
-7.27759e-05
-0.000270183
0.000281419
-5.17915e-05
9.52447e-05
-0.000136574
-0.000272439
0.000430519
-0.0001455
-1.49321e-05
3.4885e-06
-0.000229
0.000150873
-0.000176358
0.000256676
4.84036e-05
-0.000237755
0.00022269
2.27656e-05
0.000111746
1.04422e-05
-0.000314921
0.000196704
-4.41027e-05
0.000122718
1.89608e-05
-0.000355569
0.000216926
-8.72226e-05
4.53945e-05
2.51352e-05
-0.000168761
0.000294932
-4.65667e-05
4.80656e-05
-1.7086e-05
-0.000412494
0.000235998
-5.37781e-05
0.000125138
-1.49895e-05
-0.000203822
0.000191861
3.77761e-05
6.39303e-05
-0.000134601
-0.000427609
0.000312088
3.409e-05
8.70882e-05
-0.000134474
-0.000255133
0.00018714
-6.47496e-05
0.000160696
1.58411e-05
-0.000439223
0.000445905
-2.32258e-05
-3.64566e-06
8.57339e-05
-0.000254618
0.000300442
-0.000121129
-1.95006e-05
9.0014e-05
-0.000305676
0.000218534
5.96151e-06
0.000106975
-5.16854e-05
-0.000459225
0.000293479
-4.44253e-05
4.07539e-05
1.95531e-05
-0.000158308
0.000145852
-2.23995e-05
9.21056e-05
-8.26216e-05
-0.000227091
0.000327093
5.2715e-05
-3.22971e-06
-7.92155e-05
-0.000295227
0.000402963
-5.12385e-05
7.93717e-05
0.000104886
-0.000391365
0.000169378
-1.56265e-05
0.000147815
-2.76559e-05
-0.000194844
0.000358009
-0.000205638
0.000189678
5.61795e-05
-0.000177962
0.000257189
-0.000108712
4.54215e-05
-5.71283e-05
-0.000330629
0.000251593
-0.000142371
0.00011009
8.1188e-07
-0.000181394
0.000336735
-0.000108407
4.97652e-05
2.15558e-05
-0.000354466
0.00019026
-9.15539e-05
0.000203662
-4.75558e-05
-0.000352003
0.000250146
0.00018359
-0.00028202
8.87648e-05
-4.85785e-05
-0.000242014
0.000308055
-8.20991e-05
3.76948e-05
-1.28825e-06
-0.000167752
0.000296488
-8.30392e-05
5.91471e-06
-0.00010022
-0.000242253
0.000253589
-0.000132272
0.00016338
0.000108896
-0.000261485
0.000340231
-6.46336e-05
5.30431e-05
-9.55127e-05
-0.000188453
0.000315361
-2.26287e-05
3.97611e-05
-0.000131667
-0.000276186
0.000240855
-5.7289e-05
0.00020291
-3.01827e-05
-0.000164271
0.00026019
-6.52659e-05
0.000106004
2.84384e-05
-0.000343046
0.000154462
-3.85607e-05
0.000260427
-0.000141898
-0.000196497
-4.34811e-06
-0.00013209
0.0001522
0.000137749
-0.000306147
0.000203342
-3.88819e-05
5.86503e-05
-6.43157e-05
-0.000193315
0.000301071
-0.000142538
0.000174454
3.89819e-05
-0.000247412
0.000155927
-0.00016583
6.47284e-05
-2.65236e-05
-0.000327535
0.000355679
-3.66777e-05
2.78628e-06
-6.11963e-05
-0.000306871
0.000184707
5.34998e-06
7.152e-05
-4.60387e-05
-0.000260315
0.000237717
-9.24005e-05
0.000141632
5.55229e-05
-0.000321645
0.000390204
5.43764e-05
5.93602e-06
-0.000116524
-0.000209426
0.000262586
-0.00017078
0.000196961
1.27247e-05
-0.000351455
0.00021372
-1.96745e-05
8.07513e-05
-0.000225856
-0.000319011
0.000399317
-5.40125e-05
0.000182552
-2.09617e-06
-0.000322546
0.000301705
-9.98866e-05
0.000108967
-0.000117372
-0.000321566
0.000278169
-2.45112e-06
1.55579e-05
-2.06531e-05
-0.000324667
0.000133077
2.42513e-05
0.000142183
-9.99722e-05
-0.000294939
0.000245887
2.53133e-05
0.000111504
-0.000137676
-0.000357218
0.000508824
-3.85377e-05
5.19012e-05
-5.93902e-05
-0.000241737
0.000234137
-6.96474e-05
7.85684e-05
-3.70501e-05
-0.000326207
0.000304332
-5.24047e-05
0.000207576
5.18595e-05
-0.000303095
0.00018454
1.40567e-05
0.000216726
-8.66232e-05
-0.000325853
0.000141103
-0.000186856
0.000120295
5.24622e-05
-0.000341604
0.000382631
2.82831e-06
0.000200421
-2.21629e-05
-0.000275391
0.000379882
4.02831e-05
6.2932e-05
-6.96154e-05
-0.000400253
0.000154084
-5.36239e-05
0.000140815
-0.000105721
-0.000368765
0.000292841
-0.0001401
2.01196e-05
-2.28347e-05
-0.000251591
0.000418153
-0.000109728
0.000144771
2.57832e-05
-0.000465668
0.000371164
6.07321e-05
-4.50423e-05
2.17018e-05
-8.67455e-05
0.000241437
-0.000166757
5.8383e-05
2.31396e-05
-0.000344703
0.000277879
-4.78375e-05
1.44679e-05
-4.99535e-05
-0.000270311
0.000291727
-0.000116542
-1.19678e-05
9.68226e-06
-0.000427593
0.000296159
4.84592e-05
1.20141e-05
-1.93738e-05
-0.000382475
0.000162224
-4.33737e-05
0.000162458
-3.67559e-05
-0.00029194
0.000259375
-4.87553e-05
0.000193685
-3.51283e-05
-0.000181275
0.000239869
2.36046e-05
0.000232966
-8.01713e-05
-0.000186518
0.000297816
-1.13024e-05
9.67437e-05
-4.56634e-05
-0.0002664
0.000309764
3.60785e-05
1.91807e-05
1.52355e-05
-0.000311459
0.000198234
3.32431e-05
3.8019e-05
-6.26538e-05
-0.000262398
0.000181195
-7.13305e-05
6.48436e-05
-0.000123956
-0.000259129
0.000316023
-0.000101849
-1.13621e-06
-6.11312e-05
-0.000325906
0.000260055
-8.49951e-05
2.77746e-05
-5.74583e-05
-0.000277923
0.00044422
-6.07849e-05
0.000122626
-0.000158599
-0.000361861
0.000347103
7.17352e-05
9.95974e-05
5.90084e-05
-0.000228955
0.000272377
-3.91152e-05
3.10323e-05
-3.04258e-05
-0.000232633
0.000194574
0.000110046
-0.00018387
3.6604e-05
5.69576e-05
-0.000278291
0.000258079
-1.68842e-05
0.000124097
-0.000136386
-0.000336013
0.000292444
-5.11912e-05
0.000120993
-0.000205734
-0.000165066
0.000275104
-1.15674e-05
8.63438e-05
-0.000218455
-0.000316959
0.000174778
-6.8073e-05
8.67224e-05
-0.000103407
-0.000260894
0.000280748
8.55199e-06
9.77563e-05
-0.00013557
-0.000369132
0.000273711
-3.78757e-05
0.000160533
-7.16689e-05
-0.000312068
0.000300718
-3.07161e-05
4.26326e-05
3.97934e-05
-0.000237676
0.000247982
7.19016e-05
0.000196361
-4.14322e-05
-0.000159926
7.24408e-05
-3.12098e-05
7.24645e-05
-9.42172e-06
-0.000258365
0.000225657
-4.38283e-05
0.000109008
-5.83054e-05
-0.000298459
0.000396612
-0.000169524
0.000208989
7.08853e-05
-0.00028094
0.000291947
1.07024e-05
-5.47296e-05
-0.000163404
-0.000174905
0.00033039
-0.000114539
3.57216e-05
6.1927e-05
-0.000394964
0.000193965
1.41277e-05
3.98331e-05
-9.5133e-05
-0.000236709
0.000366366
-8.87342e-05
2.19229e-05
9.3485e-06
-0.000261017
0.000236178
-4.29354e-05
-3.48628e-05
-8.46907e-05
-0.000125281
0.000393223
-0.000161466
4.73689e-05
-0.000134478
-0.000465146
0.000414609
0.00012536
0.000292338
-5.89087e-05
-0.000250164
0.000213404
3.68677e-05
0.000126534
-3.87654e-05
-0.000396891
0.000207559
6.54935e-05
0.000179562
-0.000109124
-0.000376555
0.000318258
-2.13992e-05
1.12234e-05
-1.34781e-05
-0.000359855
0.000249587
6.15185e-05
0.000120117
-5.80258e-05
-0.000228312
0.000302558
-0.000103471
-7.12231e-05
-0.000102672
-0.000220198
0.000317578
-0.000176079
0.000254246
-1.14923e-05
-0.00020149
0.000179793
-6.35457e-05
0.000137151
-9.69355e-05
-0.000285236
0.000255393
5.81853e-05
0.000116845
-0.000105417
-0.000379167
0.0002453
-1.6029e-05
0.000147073
7.17089e-05
-0.000259281
0.000297205
3.98885e-05
5.20458e-06
7.00116e-05
-0.000357197
0.000388833
-1.35753e-05
9.0054e-05
-0.00018459
-0.000299018
0.000416789
-0.000166927
0.000172512
-8.46981e-05
-0.00020399
0.000298736
-1.37294e-05
0.000124225
4.59375e-05
-0.000198506
8.2272e-05
-4.80883e-05
9.18495e-05
-0.00013391
-0.000263972
0.000393481
-0.000104159
9.16017e-05
0.000126483
-0.000223583
0.000220603
-0.000115558
2.63439e-05
7.58371e-05
-0.000221467
0.000221898
-7.0009e-05
0.000147482
0.000113273
-0.000266333
0.000114273
-5.02164e-05
0.000107618
-3.78182e-05
-0.000129221
0.000346158
5.01344e-05
6.45979e-05
-5.37536e-05
-0.000242251
0.000117029
-4.45816e-05
0.000143546
2.3368e-06
-0.000340674
0.000355951
-6.95124e-05
0.000152189
-5.97539e-05
-0.000277978
0.000326465
6.25913e-05
1.26029e-05
-2.48973e-05
-0.000122703
0.000163415
5.15254e-07
0.000123508
2.96349e-05
-0.000331681
0.000127071
2.16556e-06
0.000116502
-4.27687e-05
-0.0002986
0.000276909
-0.000123225
0.000100497
-5.99399e-06
-0.000201912
0.000306678
3.40691e-05
2.87159e-05
5.95213e-05
-0.000303009
0.000222624
2.53721e-05
4.22926e-05
4.94387e-05
-0.00024132
0.000314402
-1.16597e-05
0.000156339
2.96215e-05
-0.000341543
0.000190913
-0.000209164
8.86528e-05
1.40197e-05
-0.000106758
0.000268682
-0.000121337
0.000117715
-5.11769e-05
-0.000330249
0.0003534
-3.31951e-05
-3.41671e-05
2.70226e-05
-0.000332399
0.000432697
9.10133e-05
0.000111779
-9.5055e-05
-0.000292706
0.000204177
0.000269886
-0.000111222
-3.59934e-05
1.75328e-05
-0.000210743
0.000366688
-7.26082e-05
6.4758e-05
-6.46745e-06
-0.00024406
0.000317177
-0.000144827
0.000168597
-0.000139138
-0.000370925
0.000281335
-5.9164e-05
1.70846e-05
-0.00019846
-0.000229536
0.00035989
3.04125e-05
0.000103332
9.97105e-05
-0.000262079
0.000252577
-8.34148e-05
0.000140352
-0.000156433
-0.000301608
0.000302695
-0.000120787
0.000156902
-0.000153684
-0.000239228
0.000256604
-0.000118711
8.19175e-05
9.17099e-05
-0.000296807
0.00010001
-0.00011353
0.000221135
-0.000203
-3.00553e-05
0.000243643
-7.43903e-05
0.000165762
-9.32927e-05
-0.000211283
0.000353221
-9.22992e-05
0.00013495
-6.08547e-05
-0.000352772
0.000250706
-0.000146655
7.17232e-05
2.44819e-05
-0.000254681
0.000307833
3.8968e-05
7.3201e-05
-0.000127576
-0.000331714
0.000325235
-5.7879e-05
0.000151279
-4.48117e-05
-0.000235221
0.000358621
-5.53853e-05
0.000145247
-7.25506e-05
-0.000340152
0.000343655
-9.39999e-05
-1.57401e-05
6.44538e-05
-0.000261219
0.000483527
-8.21659e-05
4.75447e-05
-2.8484e-05
-0.0001988
0.00034903
-0.000168302
6.14458e-05
-0.000105402
-0.000304908
0.000355878
-8.95839e-06
0.000172554
-8.87669e-05
-0.000250133
0.000283476
-8.6277e-05
6.3953e-05
7.53994e-05
-0.000238331
0.000181978
-3.72006e-05
0.000115986
-4.90653e-05
-0.000335441
0.000300464
-5.60561e-05
0.000146904
-1.45514e-05
-0.000259104
0.000315196
5.75557e-07
4.60637e-05
-4.57484e-05
-0.000208123
0.000379778
-0.000131418
7.82012e-05
-8.4545e-05
-0.000325476
0.000242079
-4.14604e-05
4.01905e-05
-3.77295e-05
-0.000195929
0.000227943
-0.000128057
0.000180778
-3.47514e-05
-0.0003089
0.000243914
8.94072e-05
9.13335e-05
-9.60407e-05
-0.000128076
0.000218048
-8.49402e-05
6.43253e-05
-7.86622e-05
-0.000250478
0.000265246
-1.7484e-05
0.000104256
-0.000102318
-0.000341844
0.00022941
-9.39078e-05
0.000113983
1.27642e-05
-0.000332155
0.000261056
-2.94087e-05
0.000203872
4.1539e-05
-0.000335106
8.17708e-05
1.58941e-05
0.000202675
-2.43731e-05
-0.000349802
0.000162745
-1.64239e-06
9.46025e-05
1.2652e-06
-0.000392465
0.000338631
3.8102e-05
0.000139864
-0.000168608
-0.000326716
0.000249996
-7.71754e-05
6.58358e-05
-6.44232e-05
-0.00022968
7.95627e-05
-0.000156246
0.000230031
0.000118134
-0.000317777
0.000258662
5.59066e-05
0.000127488
-0.000120406
-0.00026143
0.000135154
-9.82829e-05
6.68119e-05
-1.20109e-05
-0.00021471
0.000282196
-0.000110506
8.28437e-05
5.56507e-05
-0.000218863
0.000292785
-1.79852e-05
6.96746e-05
-8.68808e-06
-0.00034234
0.000274432
-5.44153e-05
8.92691e-05
7.1571e-05
-0.000306969
0.000181583
-8.06539e-05
-1.07366e-05
7.77552e-05
-0.000294363
0.000291675
-3.29672e-05
-5.4522e-05
-1.48017e-05
-0.000202011
0.000154071
-9.48652e-05
6.23418e-05
-8.10814e-05
-0.000144342
0.000230447
-2.21631e-05
1.34755e-05
-0.000124962
-0.000310169
0.000360207
-6.65695e-05
6.5234e-05
-1.29761e-05
-0.000227595
8.00083e-05
-8.58493e-06
7.91847e-05
-2.49979e-05
-0.000267567
0.000359688
-0.000162209
-1.84127e-05
7.97991e-05
-0.000201727
0.000372176
-3.32281e-05
1.74157e-07
3.97095e-05
-0.000211816
0.000314868
9.15665e-06
8.78768e-05
-0.00010489
-0.000194947
0.000298553
-0.000156942
-1.97499e-05
6.31711e-05
-0.000371485
0.00020759
0.000197726
-0.00028065
0.000145021
3.96463e-05
-0.000141136
0.000243636
-0.000138582
-9.79737e-05
-2.71481e-05
-0.0003841
0.000431683
-8.12614e-05
0.000238512
-0.000110186
-0.000306162
0.000459508
-2.81188e-05
0.000121457
-9.65666e-05
-0.000217334
0.000239317
-9.36748e-05
4.47518e-05
-1.92708e-05
-0.000228791
0.000382043
-4.01484e-05
0.000208827
1.13656e-05
-0.000211586
0.000296818
-2.44875e-05
0.000173085
-4.20228e-05
-0.00029554
0.000158302
-9.96871e-05
7.91723e-05
-8.09028e-05
-0.00040937
0.000290152
-0.000112674
7.17246e-05
-5.3838e-05
-0.000349
0.000229578
-0.000147257
2.4784e-05
3.38936e-05
-0.000249067
0.000354408
-5.289e-05
0.000172166
-3.72838e-05
-0.000273931
0.000387462
-9.42616e-05
3.58141e-05
2.65876e-05
-0.000262427
0.00032174
-0.000118367
8.01153e-05
1.47108e-05
-0.000277045
0.000359382
7.4491e-05
0.000101065
-5.13159e-06
-0.000326931
0.000184297
-0.00018004
0.000132168
-0.000110308
-0.000249097
0.000292461
3.13998e-05
0.000111017
-9.08806e-05
-0.000377967
0.00035135
2.41845e-05
0.00012859
-4.8345e-05
-0.000191726
0.00027613
-3.41211e-05
3.51749e-05
-9.32197e-05
-0.000242677
0.000432348
-0.000114791
7.89086e-06
-9.97197e-05
-0.000185761
0.000293924
-9.95049e-05
0.000112671
-9.22069e-05
-0.000424742