# vtk DataFile Version 1.0
Ion Density - Current Sheet
ASCII
DATASET STRUCTURED_POINTS
DIMENSIONS 256 128 1
ORIGIN 0 0 0
SPACING 0.15625 0.15625 1
POINT_DATA 32768
SCALARS rhoi float
LOOKUP_TABLE default
1.85465e-18
2.03883e-18
1.82901e-18
1.89986e-18
2.12665e-18
1.9067e-18
1.98151e-18
1.89171e-18
1.92494e-18
2.06806e-18
1.84697e-18
1.96485e-18
1.97038e-18
1.74306e-18
2.03801e-18
1.95756e-18
1.8898e-18
1.97028e-18
1.94313e-18
2.04313e-18
1.97027e-18
1.97146e-18
1.92912e-18
1.87814e-18
2.06928e-18
1.71762e-18
1.92427e-18
1.90379e-18
1.88942e-18
2.06861e-18
1.89334e-18
2.08193e-18
1.93564e-18
2.03939e-18
2.05561e-18
1.68194e-18
2.01509e-18
1.97765e-18
1.92758e-18
2.12715e-18
1.79665e-18
1.92324e-18
2.047e-18
1.9181e-18
2.05423e-18
1.74228e-18
1.97788e-18
1.89787e-18
1.71189e-18
2.1838e-18
1.80927e-18
1.90072e-18
1.85798e-18
1.8302e-18
2.07433e-18
1.8443e-18
1.96743e-18
1.99729e-18
1.90935e-18
2.02627e-18
1.79762e-18
2.06861e-18
2.03853e-18
1.86678e-18
2.07629e-18
1.81078e-18
1.97982e-18
1.87157e-18
1.76832e-18
2.11602e-18
1.89806e-18
1.92053e-18
1.89014e-18
1.8057e-18
2.03388e-18
1.71168e-18
1.8755e-18
1.88529e-18
1.87491e-18
2.02721e-18
1.67039e-18
1.89213e-18
1.94802e-18
1.85341e-18
2.16907e-18
1.83302e-18
1.74827e-18
2.02736e-18
1.88146e-18
2.09525e-18
1.69646e-18
1.7191e-18
1.85481e-18
1.97652e-18
2.16613e-18
1.97009e-18
1.96971e-18
2.0295e-18
1.86832e-18
2.06816e-18
1.70331e-18
1.98225e-18
1.81339e-18
1.81965e-18
2.15123e-18
1.77659e-18
1.89905e-18
1.80209e-18
1.82533e-18
1.96525e-18
1.76315e-18
1.8631e-18
1.99568e-18
1.78358e-18
2.14267e-18
1.78315e-18
1.77371e-18
1.84012e-18
1.80683e-18
2.04932e-18
1.78684e-18
1.91346e-18
1.9064e-18
1.87926e-18
2.11419e-18
1.72759e-18
1.86994e-18
1.94317e-18
1.87044e-18
2.04631e-18
1.71078e-18
1.88874e-18
2.05054e-18
1.80116e-18
1.97805e-18
1.99021e-18
1.92698e-18
1.87469e-18
1.96302e-18
2.19844e-18
1.84397e-18
1.97785e-18
1.94693e-18
1.89558e-18
2.05873e-18
1.71359e-18
1.84716e-18
1.97298e-18
1.87283e-18
2.0838e-18
1.83828e-18
1.88804e-18
1.97627e-18
1.80142e-18
2.04154e-18
1.93626e-18
2.06126e-18
1.88085e-18
1.83258e-18
2.13779e-18
1.88369e-18
2.0452e-18
1.8795e-18
1.70791e-18
2.16717e-18
1.88652e-18
1.84373e-18
2.02534e-18
1.88035e-18
2.06037e-18
1.7246e-18
1.89107e-18
2.04095e-18
1.80938e-18
2.06505e-18
1.84398e-18
1.95334e-18
1.83374e-18
1.86085e-18
2.07463e-18
1.80236e-18
1.97423e-18
1.98183e-18
1.90234e-18
2.0763e-18
1.76179e-18
2.06008e-18
1.89272e-18
1.85725e-18
2.11251e-18
1.87625e-18
1.81639e-18
1.87468e-18
1.88431e-18
2.11036e-18
1.79381e-18
1.92107e-18
1.83374e-18
1.92505e-18
2.03001e-18
1.86592e-18
2.02212e-18
1.87467e-18
1.947e-18
2.06698e-18
1.87964e-18
1.87283e-18
1.912e-18
1.82473e-18
2.02594e-18
1.80531e-18
1.98376e-18
1.99309e-18
1.83183e-18
1.99579e-18
1.78429e-18
2.05302e-18
1.98754e-18
1.86844e-18
2.09605e-18
1.88775e-18
1.8947e-18
1.71832e-18
1.70305e-18
2.09288e-18
1.81063e-18
1.96682e-18
1.9661e-18
1.78759e-18
2.11203e-18
1.70715e-18
1.91616e-18
1.95009e-18
2.03252e-18
1.99594e-18
1.90515e-18
1.89688e-18
1.89569e-18
1.92972e-18
1.98129e-18
1.69086e-18
1.89223e-18
1.89611e-18
1.92474e-18
2.06949e-18
1.93184e-18
1.9707e-18
1.92638e-18
2.01977e-18
2.02424e-18
1.8759e-18
1.86797e-18
1.88985e-18
1.80333e-18
2.10426e-18
1.77265e-18
2.46857e-18
3.0018e-18
2.73426e-18
2.50507e-18
2.90035e-18
2.82531e-18
2.90415e-18
2.74571e-18
2.62617e-18
3.08176e-18
2.68985e-18
2.95443e-18
2.95856e-18
2.68711e-18
2.87815e-18
2.63484e-18
2.65222e-18
2.92804e-18
2.66521e-18
2.93108e-18
2.67134e-18
2.7985e-18
2.71754e-18
2.83662e-18
2.90747e-18
2.85087e-18
2.79291e-18
2.79803e-18
2.7588e-18
2.99885e-18
2.76089e-18
2.79224e-18
2.62196e-18
2.72838e-18
2.99288e-18
2.59227e-18
2.79897e-18
2.76483e-18
2.68213e-18
2.95805e-18
2.76161e-18
2.95918e-18
2.8044e-18
2.80163e-18
2.94816e-18
2.59719e-18
2.95566e-18
2.75743e-18
2.6332e-18
3.07045e-18
2.61513e-18
2.93475e-18
2.72555e-18
2.70589e-18
2.94617e-18
2.66237e-18
2.76256e-18
2.80575e-18
2.72437e-18
2.98209e-18
2.60354e-18
2.89323e-18
2.80765e-18
2.61848e-18
2.99866e-18
2.73017e-18
2.81003e-18
2.60827e-18
2.6149e-18
2.90956e-18
2.76437e-18
2.87259e-18
2.65368e-18
2.73149e-18
3.06681e-18
2.63393e-18
2.844e-18
2.77274e-18
2.56102e-18
3.00433e-18
2.91512e-18
2.81365e-18
3.0397e-18
2.65345e-18
2.86238e-18
2.79569e-18
2.80041e-18
2.87866e-18
2.67602e-18
2.92146e-18
2.72015e-18
2.6786e-18
2.76805e-18
2.62975e-18
2.89778e-18
2.50667e-18
2.76995e-18
2.82663e-18
2.64202e-18
3.11478e-18
2.65339e-18
2.80335e-18
2.80281e-18
2.6287e-18
2.91441e-18
2.52015e-18
2.82814e-18
2.82069e-18
2.81238e-18
2.96758e-18
2.83099e-18
2.653e-18
3.03971e-18
2.76588e-18
2.93423e-18
2.66136e-18
2.8344e-18
2.85173e-18
2.76319e-18
3.05911e-18
2.54312e-18
2.79513e-18
3.0036e-18
2.63257e-18
3.02529e-18
2.84055e-18
2.81363e-18
2.81435e-18
2.61431e-18
3.01921e-18
2.69578e-18
2.75276e-18
2.87573e-18
2.66198e-18
2.93779e-18
2.84131e-18
2.7593e-18
2.7504e-18
2.62393e-18
3.01486e-18
2.53764e-18
2.80078e-18
2.89797e-18
2.74619e-18
3.03575e-18
2.68016e-18
2.55529e-18
2.71761e-18
2.70902e-18
2.89759e-18
2.54573e-18
2.62884e-18
2.91491e-18
2.87354e-18
2.97802e-18
2.80106e-18
2.85834e-18
2.85725e-18
2.68268e-18
2.97835e-18
2.67518e-18
2.80991e-18
2.81576e-18
2.69843e-18
2.99478e-18
2.76871e-18
2.76374e-18
2.73931e-18
2.63164e-18
2.90347e-18
2.75287e-18
2.77327e-18
2.91664e-18
2.76181e-18
2.99451e-18
2.82509e-18
2.64629e-18
2.77878e-18
2.65243e-18
2.96315e-18
2.67142e-18
2.7657e-18
2.72574e-18
2.81077e-18
2.93734e-18
2.63546e-18
2.73599e-18
2.685e-18
2.83849e-18
3.00932e-18
2.84647e-18
2.81338e-18
2.91162e-18
2.71132e-18
3.05664e-18
2.79552e-18
2.92517e-18
2.77124e-18
2.82717e-18
2.97053e-18
2.59244e-18
2.88702e-18
2.64209e-18
2.78263e-18
2.85868e-18
2.81136e-18
2.83318e-18
2.78122e-18
2.79176e-18
3.01174e-18
2.54556e-18
2.9754e-18
2.76775e-18
2.76118e-18
3.06466e-18
2.60212e-18
2.87045e-18
2.7104e-18
2.56043e-18
3.00878e-18
2.5289e-18
2.70119e-18
2.74229e-18
2.73412e-18
2.83333e-18
2.52859e-18
2.85169e-18
2.79129e-18
2.69482e-18
3.11782e-18
2.43252e-18
2.74427e-18
2.54674e-18
2.76255e-18
3.00444e-18
2.49809e-18
2.7649e-18
2.86692e-18
2.70197e-18
3.02883e-18
2.71132e-18
2.73278e-18
2.79328e-18
2.70039e-18
2.8872e-18
2.6584e-18
2.69645e-18
2.72196e-18
2.76873e-18
3.01494e-18
2.71277e-18
2.96648e-18
2.75877e-18
2.71508e-18
3.01004e-18
2.57735e-18
5.17536e-18
5.30195e-18
5.17412e-18
5.05215e-18
5.53131e-18
4.85008e-18
4.92774e-18
5.16724e-18
4.9767e-18
5.31151e-18
4.76733e-18
5.57278e-18
5.22004e-18
4.961e-18
5.36127e-18
4.91051e-18
5.11513e-18
5.07668e-18
4.96231e-18
5.36311e-18
4.93101e-18
5.21564e-18
5.00926e-18
4.92501e-18
5.49166e-18
4.85362e-18
5.29709e-18
5.0661e-18
5.12284e-18
5.48506e-18
4.84416e-18
5.1875e-18
5.19403e-18
4.85946e-18
5.5389e-18
5.01203e-18
5.14608e-18
5.28453e-18
5.1737e-18
5.38664e-18
5.09855e-18
5.17065e-18
5.03412e-18
5.21349e-18
5.40595e-18
5.08678e-18
5.42948e-18
5.22839e-18
4.79086e-18
5.66956e-18
4.69639e-18
5.29797e-18
5.32655e-18
4.93531e-18
5.46139e-18
4.81987e-18
5.08494e-18
5.41137e-18
5.11376e-18
5.56318e-18
4.91283e-18
5.28456e-18
5.51525e-18
5.05301e-18
5.40374e-18
5.10821e-18
5.19926e-18
5.47951e-18
5.40013e-18
5.60962e-18
4.85413e-18
5.28552e-18
5.39525e-18
4.979e-18
5.68476e-18
4.90558e-18
5.20303e-18
5.47878e-18
5.18684e-18
5.66139e-18
4.80912e-18
5.09209e-18
5.09077e-18
5.046e-18
5.52651e-18
5.18483e-18
5.27985e-18
5.3189e-18
4.94705e-18
5.4757e-18
5.14019e-18
5.45183e-18
4.87009e-18
5.09032e-18
5.6727e-18
5.1327e-18
5.43227e-18
4.88739e-18
5.06493e-18
5.52954e-18
4.76535e-18
5.22914e-18
5.18803e-18
5.24649e-18
5.66984e-18
4.94499e-18
5.49808e-18
5.00559e-18
4.91829e-18
5.5503e-18
4.97324e-18
5.45513e-18
5.21687e-18
4.89575e-18
5.72072e-18
5.0883e-18
5.30448e-18
5.41277e-18
5.01071e-18
5.59218e-18
4.96343e-18
5.11488e-18
5.16277e-18
4.73511e-18
5.41061e-18
4.91328e-18
5.45547e-18
5.21646e-18
4.69537e-18
5.67606e-18
4.82488e-18
5.15755e-18
5.1643e-18
4.91865e-18
5.68038e-18
4.65437e-18
4.89977e-18
5.33823e-18
5.29025e-18
5.49736e-18
4.96309e-18
4.93547e-18
5.29004e-18
5.08008e-18
5.31874e-18
4.91229e-18
5.29742e-18
5.45492e-18
4.92974e-18
5.50135e-18
5.41214e-18
5.25217e-18
5.07247e-18
4.88036e-18
5.46195e-18
4.95428e-18
5.46628e-18
5.18072e-18
5.30875e-18
5.76269e-18
4.9189e-18
5.27602e-18
5.1039e-18
5.04755e-18
5.13727e-18
4.70491e-18
5.15778e-18
5.19079e-18
5.15406e-18
5.5992e-18
5.02087e-18
5.28359e-18
5.1535e-18
4.89375e-18
5.45833e-18
5.11036e-18
5.34048e-18
5.40677e-18
5.28194e-18
5.36021e-18
4.64971e-18
5.3478e-18
5.37471e-18
5.40906e-18
5.69286e-18
5.12554e-18
5.12392e-18
5.2595e-18
4.91945e-18
5.36662e-18
4.84884e-18
5.04079e-18
5e-18
4.98336e-18
5.54123e-18
4.81993e-18
5.65928e-18
5.15838e-18
4.75999e-18
5.47711e-18
4.95118e-18
5.16145e-18
5.26582e-18
5.3486e-18
5.88936e-18
4.719e-18
5.54496e-18
5.35499e-18
5.11945e-18
5.49871e-18
4.93151e-18
5.12012e-18
4.9768e-18
5.00304e-18
5.70145e-18
4.9144e-18
5.28832e-18
5.18445e-18
4.90425e-18
5.53161e-18
4.89361e-18
5.59349e-18
5.34477e-18
5.23957e-18
5.32206e-18
4.87596e-18
5.25079e-18
5.08736e-18
4.97296e-18
5.65189e-18
5.06358e-18
5.54066e-18
5.21812e-18
5.22883e-18
5.61574e-18
4.80859e-18
5.35112e-18
5.11853e-18
5.21552e-18
5.57846e-18
4.93575e-18
5.3438e-18
5.23872e-18
4.99247e-18
5.67233e-18
5.12931e-18
5.10277e-18
5.25782e-18
5.12289e-18
5.58603e-18
5.25049e-18
5.26118e-18
5.03781e-18
5.21647e-18
5.61448e-18
5.44226e-18
9.09278e-18
1.08233e-17
9.78628e-18
9.68791e-18
1.00238e-17
9.08819e-18
9.62976e-18
9.7387e-18
9.90838e-18
1.03767e-17
8.98249e-18
9.99214e-18
9.87713e-18
9.26808e-18
1.03917e-17
9.35104e-18
9.85218e-18
9.60018e-18
9.23174e-18
1.03253e-17
9.53309e-18
9.43381e-18
9.71755e-18
9.48862e-18
1.05017e-17
9.26039e-18
9.68848e-18
9.58686e-18
9.25694e-18
1.04944e-17
9.76797e-18
9.29282e-18
9.89378e-18
9.73914e-18
1.06686e-17
9.26336e-18
1.01269e-17
1.01484e-17
8.93643e-18
1.05397e-17
9.55209e-18
9.16016e-18
9.36894e-18
9.46798e-18
1.01538e-17
9.57328e-18
9.65033e-18
1.01023e-17
9.45531e-18
1.05467e-17
8.82814e-18
9.67398e-18
9.97758e-18
9.18524e-18
1.03352e-17
9.26565e-18
9.7909e-18
9.88319e-18
9.44623e-18
1.02325e-17
9.10719e-18
9.62363e-18
9.20588e-18
9.70384e-18
1.01696e-17
9.4479e-18
1.00966e-17
9.50203e-18
8.90171e-18
1.0326e-17
9.57634e-18
9.97427e-18
9.70733e-18
9.73839e-18
1.03985e-17
9.1989e-18
9.9789e-18
9.51682e-18
9.70309e-18
1.03406e-17
8.49337e-18
1.00859e-17
9.15073e-18
8.96723e-18
1.00415e-17
9.48219e-18
9.9468e-18
9.50644e-18
9.30898e-18
1.0231e-17
9.32051e-18
9.46112e-18
9.87507e-18
9.21546e-18
1.00155e-17
8.57696e-18
1.00533e-17
9.46198e-18
9.19836e-18
1.02449e-17
9.14179e-18
9.66514e-18
9.64261e-18
9.10233e-18
1.04287e-17
8.55324e-18
1.01245e-17
9.48288e-18
9.9166e-18
1.03391e-17
9.14042e-18
1.0106e-17
1.00164e-17
9.17743e-18
1.03503e-17
1.01492e-17
1.00711e-17
9.65994e-18
9.50193e-18
1.05166e-17
9.19741e-18
9.70912e-18
1.01679e-17
9.7542e-18
9.90608e-18
8.80515e-18
9.7571e-18
1.00831e-17
9.41424e-18
1.01269e-17
9.40387e-18
1.00457e-17
8.96703e-18
9.35806e-18
1.08114e-17
9.38736e-18
9.77872e-18
9.49003e-18
9.48432e-18
1.04555e-17
9.01094e-18
9.26787e-18
9.85181e-18
9.05576e-18
1.03995e-17
9.47619e-18
9.47182e-18
9.29508e-18
9.46339e-18
9.99646e-18
9.11883e-18
9.91663e-18
9.51296e-18
9.61427e-18
1.02777e-17
9.16911e-18
9.69593e-18
9.49308e-18
9.4963e-18
1.05277e-17
8.60226e-18
1.0239e-17
9.3479e-18
9.72193e-18
1.03766e-17
9.90805e-18
9.93042e-18
9.35238e-18
9.64524e-18
1.02897e-17
9.17676e-18
9.90324e-18
9.92747e-18
9.22113e-18
1.05158e-17
9.51257e-18
9.95093e-18
9.89703e-18
9.743e-18
1.0698e-17
9.27268e-18
9.45394e-18
9.30291e-18
9.04142e-18
1.02242e-17
9.10854e-18
1.007e-17
9.71537e-18
9.43829e-18
9.84847e-18
9.33343e-18
9.96223e-18
9.54671e-18
9.33924e-18
1.07712e-17
9.12778e-18
9.50962e-18
9.39264e-18
9.48351e-18
1.01016e-17
1.0051e-17
9.93197e-18
9.26387e-18
9.1605e-18
1.07587e-17
8.46759e-18
9.87039e-18
9.71287e-18
9.1576e-18
1.01432e-17
9.65438e-18
9.89377e-18
9.69398e-18
9.00566e-18
1.04313e-17
9.01337e-18
9.85112e-18
9.10225e-18
8.97749e-18
1.05843e-17
8.94071e-18
1.04087e-17
1.01039e-17
8.64756e-18
1.02121e-17
9.62381e-18
1.00416e-17
9.53341e-18
1.0068e-17
1.04267e-17
8.55353e-18
9.57137e-18
9.56086e-18
9.25869e-18
1.04011e-17
8.28852e-18
9.7655e-18
9.59583e-18
8.98262e-18
1.06176e-17
9.41787e-18
9.69134e-18
9.69157e-18
9.68201e-18
1.04176e-17
9.37922e-18
9.72728e-18
1.01732e-17
9.00918e-18
1.01325e-17
9.1999e-18
9.70845e-18
9.83669e-18
9.43624e-18
1.05165e-17
9.02089e-18
1.79505e-17
1.95343e-17
1.66692e-17
1.79477e-17
2.01138e-17
1.73018e-17
1.83784e-17
1.83614e-17
1.7537e-17
1.88641e-17
1.6377e-17
1.83995e-17
1.88298e-17
1.70702e-17
1.95986e-17
1.76665e-17
1.92122e-17
1.93356e-17
1.7823e-17
1.90627e-17
1.77585e-17
1.81943e-17
1.74233e-17
1.71238e-17
1.94519e-17
1.79647e-17
1.8902e-17
1.80351e-17
1.74689e-17
2.04659e-17
1.60305e-17
1.73398e-17
1.8514e-17
1.66713e-17
1.8949e-17
1.7194e-17
1.85388e-17
1.81486e-17
1.68647e-17
1.88406e-17
1.78026e-17
1.90758e-17
1.83188e-17
1.80663e-17
1.86127e-17
1.78321e-17
1.82281e-17
1.78338e-17
1.75045e-17
2.02359e-17
1.73434e-17
1.82893e-17
1.79268e-17
1.76737e-17
1.9611e-17
1.70628e-17
1.84352e-17
1.79991e-17
1.68168e-17
1.91334e-17
1.77701e-17
1.78482e-17
1.8491e-17
1.81344e-17
1.90037e-17
1.75711e-17
1.83099e-17
1.85403e-17
1.70089e-17
1.9332e-17
1.70959e-17
1.78545e-17
1.75506e-17
1.72603e-17
1.87168e-17
1.67252e-17
1.77091e-17
1.87159e-17
1.78527e-17
1.98568e-17
1.66178e-17
1.78696e-17
1.83824e-17
1.82464e-17
1.98912e-17
1.68926e-17
1.86501e-17
1.87756e-17
1.82176e-17
1.97024e-17
1.72314e-17
1.77428e-17
1.77308e-17
1.77439e-17
1.94123e-17
1.80478e-17
1.88215e-17
1.97143e-17
1.74892e-17
1.94302e-17
1.68917e-17
1.84283e-17
1.83554e-17
1.69177e-17
1.92614e-17
1.75894e-17
1.8001e-17
1.72807e-17
1.72853e-17
1.90494e-17
1.69559e-17
1.90465e-17
1.75124e-17
1.70075e-17
1.97116e-17
1.73089e-17
1.70006e-17
1.77923e-17
1.86813e-17
1.93174e-17
1.87745e-17
1.92817e-17
1.77123e-17
1.90073e-17
1.94013e-17
1.67561e-17
1.86694e-17
1.82021e-17
1.77972e-17
1.9424e-17
1.72045e-17
1.92232e-17
1.74959e-17
1.81768e-17
1.8957e-17
1.72542e-17
1.89372e-17
1.79015e-17
1.66739e-17
1.86195e-17
1.73653e-17
1.87528e-17
1.81573e-17
1.83629e-17
2.0718e-17
1.85529e-17
1.81192e-17
1.82005e-17
1.80208e-17
1.929e-17
1.72444e-17
1.83776e-17
1.73056e-17
1.69588e-17
1.81337e-17
1.6628e-17
1.81553e-17
1.87185e-17
1.81673e-17
1.92172e-17
1.59045e-17
1.97991e-17
1.86747e-17
1.81083e-17
1.91661e-17
1.66538e-17
1.92014e-17
1.79418e-17
1.82006e-17
1.9533e-17
1.80329e-17
1.83375e-17
1.8291e-17
1.80624e-17
1.92574e-17
1.65387e-17
1.83921e-17
1.7145e-17
1.64415e-17
1.92481e-17
1.85484e-17
1.8966e-17
1.86422e-17
1.76576e-17
1.97963e-17
1.61842e-17
1.88771e-17
1.82889e-17
1.74453e-17
1.95916e-17
1.76469e-17
1.86653e-17
1.87699e-17
1.81384e-17
1.90304e-17
1.65886e-17
1.82174e-17
1.74059e-17
1.74447e-17
1.89936e-17
1.69124e-17
1.81281e-17
1.85426e-17
1.79328e-17
1.96429e-17
1.63357e-17
1.87207e-17
1.85172e-17
1.67955e-17
1.92015e-17
1.78935e-17
1.76827e-17
1.80263e-17
1.86956e-17
1.95316e-17
1.71625e-17
1.79141e-17
1.87621e-17
1.78889e-17
1.96349e-17
1.59101e-17
1.84745e-17
1.77544e-17
1.71727e-17
1.94784e-17
1.71654e-17
1.79971e-17
1.8678e-17
1.71551e-17
1.94492e-17
1.7257e-17
1.79377e-17
1.76133e-17
1.65099e-17
1.87369e-17
1.7852e-17
1.85646e-17
1.8475e-17
1.73592e-17
2.03341e-17
1.7395e-17
1.89029e-17
1.83121e-17
1.70389e-17
1.89164e-17
1.71432e-17
1.81181e-17
1.82947e-17
1.68182e-17
2.01158e-17
1.8148e-17
1.75003e-17
1.81811e-17
1.72109e-17
2.01468e-17
1.66817e-17
3.03067e-17
3.70034e-17
3.09016e-17
3.237e-17
3.63809e-17
3.46313e-17
3.38567e-17
3.4492e-17
3.27416e-17
3.56987e-17
3.09699e-17
3.31524e-17
3.27849e-17
3.16655e-17
3.5765e-17
3.24252e-17
3.35441e-17
3.50475e-17
3.13399e-17
3.56958e-17
3.32691e-17
3.52237e-17
3.2755e-17
3.34227e-17
3.58784e-17
3.22444e-17
3.25717e-17
3.31889e-17
3.20696e-17
3.54193e-17
3.27905e-17
3.52861e-17
3.50048e-17
3.18788e-17
3.63467e-17
3.10002e-17
3.30578e-17
3.50904e-17
3.23354e-17
3.67143e-17
3.10931e-17
3.47337e-17
3.44192e-17
3.01946e-17
3.72e-17
3.11553e-17
3.29553e-17
3.33513e-17
3.47441e-17
3.73447e-17
3.18142e-17
3.38246e-17
3.15946e-17
3.36079e-17
3.5443e-17
3.02457e-17
3.38428e-17
3.33319e-17
3.42895e-17
3.47684e-17
3.30219e-17
3.45011e-17
3.21145e-17
3.37696e-17
3.68733e-17
3.18196e-17
3.25882e-17
3.33786e-17
3.35853e-17
3.51767e-17
2.96369e-17
3.39952e-17
3.65602e-17
3.26972e-17
3.66609e-17
3.08686e-17
3.41315e-17
3.34968e-17
3.09656e-17
3.63331e-17
3.08733e-17
3.5419e-17
3.4272e-17
3.25393e-17
3.71969e-17
3.13506e-17
3.37557e-17
3.47012e-17
3.26323e-17
3.45777e-17
3.3523e-17
3.54233e-17
3.3867e-17
3.14983e-17
3.51552e-17
3.05185e-17
3.30782e-17
3.40708e-17
3.16752e-17
3.72546e-17
3.66767e-17
3.27376e-17
3.48504e-17
3.24745e-17
3.51508e-17
3.25359e-17
3.39684e-17
3.33346e-17
3.23324e-17
3.57622e-17
3.32845e-17
3.38513e-17
3.7456e-17
3.11658e-17
3.5912e-17
3.00918e-17
3.34752e-17
3.34085e-17
3.21426e-17
3.65278e-17
2.96971e-17
3.39475e-17
3.4168e-17
3.27627e-17
3.74868e-17
3.29657e-17
3.45247e-17
3.47916e-17
3.58209e-17
3.58243e-17
3.31335e-17
3.20356e-17
3.27361e-17
3.26019e-17
3.74957e-17
3.19493e-17
3.39639e-17
3.54054e-17
3.28117e-17
3.54681e-17
3.05877e-17
3.37398e-17
3.25903e-17
3.50371e-17
3.57777e-17
3.17851e-17
3.36904e-17
3.46783e-17
3.16533e-17
3.6281e-17
3.2913e-17
3.46707e-17
3.57863e-17
3.20675e-17
3.54407e-17
3.22039e-17
3.58592e-17
3.25296e-17
3.3438e-17
3.73444e-17
3.19503e-17
3.56351e-17
3.36142e-17
3.2759e-17
3.56484e-17
3.11978e-17
3.44251e-17
3.19907e-17
3.23991e-17
3.61965e-17
3.19947e-17
3.31832e-17
3.42377e-17
3.38548e-17
3.72562e-17
3.26715e-17
3.39016e-17
3.28239e-17
3.15951e-17
3.58503e-17
3.18606e-17
3.39018e-17
3.38025e-17
3.27923e-17
3.60845e-17
3.23684e-17
3.59144e-17
3.33662e-17
3.22032e-17
3.74226e-17
3.10634e-17
3.40492e-17
3.43497e-17
3.20398e-17
3.63823e-17
3.29134e-17
3.51388e-17
3.40495e-17
3.2721e-17
3.63149e-17
3.22841e-17
3.37353e-17
3.29972e-17
3.38938e-17
3.72059e-17
3.0757e-17
3.53192e-17
3.38124e-17
3.10088e-17
3.51768e-17
3.11412e-17
3.42329e-17
3.2607e-17
3.3742e-17
3.63259e-17
3.36015e-17
3.38457e-17
3.40715e-17
3.21403e-17
3.65055e-17
3.22828e-17
3.34507e-17
3.36464e-17
3.34838e-17
3.70995e-17
3.34106e-17
3.51625e-17
3.36869e-17
3.18742e-17
3.72529e-17
3.146e-17
3.45986e-17
3.53868e-17
3.33961e-17
3.7067e-17
3.35359e-17
3.40835e-17
3.41703e-17
3.29569e-17
3.55555e-17
3.07185e-17
3.44032e-17
3.52957e-17
3.18989e-17
3.49548e-17
3.37271e-17
3.36764e-17
3.29123e-17
3.42346e-17
3.50676e-17
3.18198e-17
3.30713e-17
3.42224e-17
3.11085e-17
3.55372e-17
3.4137e-17
6.16847e-17
6.77907e-17
6.2648e-17
5.90514e-17
6.99732e-17
5.99661e-17
6.23092e-17
6.51516e-17
5.79558e-17
6.71814e-17
5.97151e-17
6.46532e-17
6.27195e-17
5.90101e-17
6.8669e-17
6.06023e-17
6.56014e-17
6.47717e-17
5.97611e-17
6.69757e-17
5.86247e-17
6.19706e-17
6.54731e-17
6.39813e-17
6.65134e-17
6.44123e-17
6.58115e-17
6.33338e-17
5.88691e-17
6.81116e-17
6.3006e-17
6.55581e-17
6.21586e-17
5.88783e-17
6.53305e-17
6.49119e-17
6.6348e-17
6.47313e-17
5.85602e-17
6.76729e-17
5.92128e-17
6.59786e-17
7.2769e-17
6.26239e-17
6.5945e-17
6.41142e-17
6.24261e-17
6.22155e-17
6.33376e-17
6.90259e-17
6.15065e-17
6.42102e-17
6.61465e-17
6.36628e-17
6.75424e-17
6.06306e-17
6.6218e-17
6.44604e-17
5.95237e-17
6.93368e-17
5.7666e-17
6.04275e-17
6.3619e-17
6.42373e-17
6.79644e-17
5.84028e-17
6.52986e-17
6.27627e-17
6.38794e-17
6.91035e-17
6.40609e-17
6.5597e-17
6.25959e-17
6.20446e-17
6.5242e-17
6.36709e-17
6.39584e-17
6.34123e-17
6.24664e-17
6.71302e-17
6.00991e-17
6.26971e-17
6.24592e-17
6.53295e-17
6.80791e-17
6.10675e-17
6.28484e-17
6.32663e-17
6.05306e-17
6.84431e-17
5.92012e-17
6.28434e-17
6.35124e-17
5.98898e-17
6.69412e-17
5.90294e-17
6.55305e-17
6.57963e-17
5.77615e-17
6.54532e-17
5.93308e-17
6.22958e-17
6.29917e-17
6.39149e-17
6.53856e-17
6.50575e-17
6.56994e-17
6.27974e-17
6.04008e-17
6.8918e-17
6.02822e-17
6.6956e-17
6.24686e-17
6.28129e-17
7.12643e-17
6.01292e-17
6.28724e-17
6.26805e-17
6.47664e-17
6.51075e-17
5.98184e-17
6.3371e-17
6.25871e-17
5.80811e-17
6.67774e-17
5.73263e-17
6.28808e-17
6.1901e-17
6.08299e-17
6.96311e-17
6.10501e-17
6.15326e-17
6.53186e-17
6.34694e-17
6.75713e-17
5.93061e-17
6.372e-17
6.21314e-17
6.19032e-17
6.89309e-17
6.07289e-17
6.2772e-17
6.67826e-17
6.03051e-17
6.77499e-17
6.15199e-17
6.09654e-17
6.23338e-17
5.95824e-17
6.85595e-17
5.88717e-17
6.46739e-17
6.35228e-17
6.10705e-17
6.81908e-17
6.4105e-17
6.23406e-17
6.13546e-17
6.17058e-17
6.6471e-17
6.20272e-17
6.34115e-17
6.33712e-17
6.1885e-17
6.59777e-17
5.66048e-17
6.63649e-17
6.19893e-17
6.09337e-17
6.55153e-17
6.35262e-17
6.31245e-17
6.2825e-17
6.15324e-17
6.94456e-17
5.71851e-17
6.45912e-17
6.82393e-17
5.9205e-17
6.569e-17
5.87082e-17
6.65966e-17
6.59625e-17
6.41121e-17
6.86069e-17
5.80929e-17
6.17919e-17
6.28433e-17
6.44457e-17
6.84959e-17
6.12427e-17
6.32215e-17
6.30922e-17
6.11471e-17
6.76115e-17
5.64043e-17
6.40946e-17
6.31279e-17
6.14806e-17
6.94277e-17
5.86322e-17
6.71736e-17
6.35524e-17
6.28333e-17
6.90721e-17
6.17599e-17
6.61061e-17
6.31918e-17
5.88908e-17
6.8235e-17
5.7689e-17
6.47493e-17
6.2843e-17
6.02029e-17
6.8017e-17
5.93956e-17
6.44745e-17
6.26921e-17
6.05133e-17
6.9031e-17
6.09822e-17
6.41611e-17
6.25261e-17
5.66398e-17
6.62926e-17
5.74382e-17
6.55515e-17
6.71013e-17
6.04071e-17
6.77708e-17
5.94678e-17
6.39049e-17
6.48318e-17
6.13136e-17
6.72094e-17
5.73729e-17
6.3414e-17
6.34521e-17
6.05396e-17
6.82928e-17
5.63168e-17
6.30468e-17
6.63266e-17
6.30036e-17
7.00543e-17
5.91821e-17
6.30256e-17
6.50064e-17
6.25114e-17
6.46327e-17
6.25252e-17
6.85435e-17
6.14922e-17
6.0974e-17
6.72204e-17
6.36696e-17
1.05624e-16
1.27881e-16
1.20815e-16
1.12878e-16
1.28018e-16
1.11576e-16
1.1957e-16
1.18508e-16
1.14542e-16
1.22595e-16
1.14456e-16
1.25869e-16
1.20186e-16
1.17285e-16
1.23606e-16
1.14807e-16
1.25567e-16
1.19042e-16
1.12294e-16
1.24419e-16
1.05446e-16
1.18904e-16
1.12819e-16
1.17306e-16
1.25583e-16
1.17659e-16
1.21933e-16
1.18292e-16
1.14276e-16
1.25119e-16
1.04884e-16
1.29921e-16
1.21918e-16
1.16389e-16
1.28053e-16
1.16265e-16
1.16969e-16
1.17429e-16
1.16864e-16
1.25739e-16
1.01505e-16
1.20884e-16
1.20617e-16
1.13884e-16
1.28163e-16
1.12875e-16
1.18604e-16
1.12718e-16
1.17702e-16
1.23959e-16
1.0869e-16
1.22158e-16
1.13752e-16
1.12563e-16
1.27038e-16
1.14906e-16
1.2426e-16
1.2057e-16
1.14114e-16
1.28501e-16
1.09719e-16
1.24217e-16
1.18391e-16
1.13291e-16
1.23147e-16
1.09193e-16
1.17493e-16
1.20082e-16
1.11835e-16
1.21835e-16
1.19006e-16
1.18658e-16
1.18693e-16
1.17025e-16
1.28125e-16
1.10282e-16
1.21673e-16
1.19099e-16
1.08881e-16
1.31378e-16
1.09309e-16
1.20031e-16
1.18917e-16
1.22546e-16
1.28933e-16
1.04767e-16
1.16999e-16
1.20312e-16
1.14792e-16
1.3044e-16
1.10671e-16
1.19929e-16
1.24921e-16
1.11405e-16
1.29544e-16
1.1552e-16
1.18148e-16
1.27505e-16
1.14169e-16
1.23129e-16
1.12482e-16
1.22761e-16
1.17751e-16
1.14597e-16
1.2652e-16
1.08666e-16
1.18055e-16
1.12147e-16
1.09634e-16
1.26002e-16
1.12691e-16
1.15879e-16
1.1305e-16
1.14651e-16
1.22586e-16
1.1881e-16
1.22142e-16
1.12627e-16
1.12175e-16
1.18262e-16
1.21141e-16
1.23397e-16
1.13683e-16
1.18754e-16
1.24927e-16
1.17361e-16
1.15729e-16
1.16257e-16
1.13464e-16
1.23997e-16
1.12227e-16
1.16695e-16
1.15815e-16
1.17586e-16
1.25073e-16
1.12055e-16
1.13431e-16
1.20742e-16
1.17962e-16
1.24237e-16
1.09764e-16
1.23813e-16
1.16853e-16
1.13558e-16
1.28191e-16
1.1236e-16
1.19791e-16
1.18344e-16
1.15326e-16
1.28732e-16
1.1016e-16
1.17359e-16
1.20867e-16
1.17571e-16
1.20911e-16
1.22186e-16
1.23216e-16
1.16534e-16
1.19982e-16
1.23775e-16
1.09854e-16
1.2007e-16
1.2436e-16
1.13138e-16
1.29484e-16
1.11884e-16
1.23241e-16
1.16941e-16
1.1584e-16
1.27124e-16
1.17387e-16
1.22526e-16
1.20729e-16
1.13156e-16
1.28439e-16
1.13942e-16
1.18898e-16
1.17567e-16
1.11935e-16
1.25241e-16
1.12254e-16
1.19301e-16
1.12743e-16
1.13051e-16
1.27388e-16
1.11143e-16
1.1589e-16
1.10003e-16
1.14854e-16
1.29381e-16
1.09693e-16
1.14952e-16
1.24795e-16
1.10941e-16
1.33508e-16
1.10564e-16
1.13013e-16
1.21953e-16
1.13377e-16
1.23148e-16
1.16634e-16
1.20909e-16
1.12837e-16
1.2235e-16
1.21579e-16
1.09227e-16
1.1766e-16
1.12474e-16
1.1422e-16
1.26292e-16
1.11687e-16
1.20253e-16
1.16417e-16
1.12913e-16
1.26253e-16
1.1229e-16
1.24386e-16
1.17853e-16
1.10317e-16
1.27698e-16
1.1257e-16
1.1997e-16
1.17745e-16
1.2028e-16
1.30073e-16
1.16827e-16
1.17499e-16
1.22158e-16
1.1448e-16
1.252e-16
1.08677e-16
1.12597e-16
1.26127e-16
1.13963e-16
1.27277e-16
1.14254e-16
1.21435e-16
1.1386e-16
1.13808e-16
1.24044e-16
1.1408e-16
1.19858e-16
1.19818e-16
1.19271e-16
1.25113e-16
1.14422e-16
1.24815e-16
1.16538e-16
1.1219e-16
1.24605e-16
1.14092e-16
1.22865e-16
1.21196e-16
1.1421e-16
1.24027e-16
1.08084e-16
2.2221e-16
2.33367e-16
2.08341e-16
2.11085e-16
2.32007e-16
2.03159e-16
2.1928e-16
2.22491e-16
2.03879e-16
2.43381e-16
2.08804e-16
2.23125e-16
2.2436e-16
2.20048e-16
2.33481e-16
1.99302e-16
2.19102e-16
2.34003e-16
2.16242e-16
2.32796e-16
2.13323e-16
2.17406e-16
2.07905e-16
2.11154e-16
2.40826e-16
2.02417e-16
2.20772e-16
2.23598e-16
2.0976e-16
2.36535e-16
2.11898e-16
2.3402e-16
2.28861e-16
2.11417e-16
2.24517e-16
2.03761e-16
2.13097e-16
2.21034e-16
2.15771e-16
2.29705e-16
1.99751e-16
2.27635e-16
2.14324e-16
2.01981e-16
2.38362e-16
2.18051e-16
2.25072e-16
2.13898e-16
2.10128e-16
2.41035e-16
1.98394e-16
2.36063e-16
2.18634e-16
2.21511e-16
2.40575e-16
2.06258e-16
2.31333e-16
2.28215e-16
2.04161e-16
2.43067e-16
2.29648e-16
2.26492e-16
2.19627e-16
2.08853e-16
2.46118e-16
2.21997e-16
2.2993e-16
2.24563e-16
2.1304e-16
2.30585e-16
2.0426e-16
2.16811e-16
2.16405e-16
2.26263e-16
2.37426e-16
2.12984e-16
2.28179e-16
2.26704e-16
2.08761e-16
2.39444e-16
2.06517e-16
2.26241e-16
2.18102e-16
2.13531e-16
2.38094e-16
2.03795e-16
2.25768e-16
2.17162e-16
2.05258e-16
2.41516e-16
2.15094e-16
2.2371e-16
2.2055e-16
2.242e-16
2.37777e-16
2.07613e-16
2.22931e-16
2.24219e-16
2.13873e-16
2.46907e-16
2.07029e-16
2.23914e-16
2.33513e-16
2.07853e-16
2.35658e-16
2.17967e-16
2.2814e-16
2.24202e-16
2.07605e-16
2.37639e-16
2.16364e-16
2.1835e-16
2.20681e-16
2.22786e-16
2.41674e-16
2.09078e-16
2.25142e-16
2.20829e-16
2.12322e-16
2.30787e-16
2.15701e-16
2.15664e-16
2.28029e-16
2.25467e-16
2.34956e-16
1.97199e-16
2.26837e-16
2.28287e-16
2.14898e-16
2.37074e-16
2.06211e-16
2.22927e-16
2.25763e-16
2.17517e-16
2.42216e-16
2.02319e-16
2.23982e-16
2.22882e-16
2.16564e-16
2.38436e-16
2.11473e-16
2.14842e-16
2.13602e-16
2.08386e-16
2.392e-16
2.1146e-16
2.21466e-16
2.18711e-16
2.25658e-16
2.48695e-16
2.01541e-16
2.10473e-16
2.22874e-16
2.02582e-16
2.29075e-16
2.13555e-16
2.15765e-16
2.19844e-16
2.14397e-16
2.35645e-16
2.16803e-16
2.3515e-16
2.11994e-16
2.12949e-16
2.30229e-16
2.02512e-16
2.25704e-16
2.1559e-16
2.10167e-16
2.41209e-16
1.99366e-16
2.24642e-16
2.20023e-16
2.09984e-16
2.34818e-16
2.24118e-16
2.14756e-16
2.21514e-16
2.12076e-16
2.34549e-16
2.18342e-16
2.30922e-16
2.09579e-16
2.14989e-16
2.47128e-16
2.06656e-16
2.27566e-16
2.18244e-16
2.12003e-16
2.37964e-16
2.0733e-16
2.23433e-16
2.18347e-16
2.11438e-16
2.38428e-16
2.07584e-16
2.20953e-16
2.22264e-16
2.07119e-16
2.33048e-16
1.9965e-16
2.2352e-16
2.05726e-16
2.14529e-16
2.32749e-16
2.03591e-16
2.36478e-16
2.1554e-16
2.12301e-16
2.37224e-16
2.10323e-16
2.27207e-16
2.16078e-16
2.05056e-16
2.45183e-16
1.93417e-16
2.19817e-16
2.26496e-16
2.07304e-16
2.4423e-16
2.10118e-16
2.33355e-16
2.18597e-16
2.24443e-16
2.40866e-16
2.08603e-16
2.25101e-16
2.22297e-16
2.14836e-16
2.32903e-16
2.23968e-16
2.32478e-16
2.25998e-16
2.10085e-16
2.40865e-16
2.14379e-16
2.10698e-16
2.35605e-16
2.11304e-16
2.32373e-16
2.10448e-16
2.24596e-16
2.26193e-16
2.14889e-16
2.37703e-16
2.04202e-16
2.19466e-16
2.15164e-16
2.19431e-16
2.33661e-16
2.13313e-16
2.0996e-16
2.07623e-16
2.12529e-16
2.32241e-16
2.03382e-16
3.95161e-16
4.42678e-16
4.14919e-16
4.17233e-16
4.42357e-16
3.9607e-16
3.98534e-16
4.19167e-16
4.01136e-16
4.36146e-16
3.87694e-16
4.06002e-16
4.06597e-16
3.97408e-16
4.37549e-16
3.75876e-16
4.21407e-16
4.00077e-16
3.67293e-16
4.44049e-16
3.8271e-16
4.03456e-16
3.93847e-16
4.15019e-16
4.49403e-16
3.96621e-16
4.24368e-16
4.07902e-16
3.94652e-16
4.52694e-16
3.95692e-16
4.15786e-16
3.88445e-16
4.18518e-16
4.42098e-16
4.09643e-16
4.10104e-16
4.1098e-16
4.23634e-16
4.44291e-16
4.24563e-16
4.10659e-16
4.14565e-16
4.02886e-16
4.41757e-16
3.92045e-16
4.0828e-16
4.19332e-16
4.07917e-16
4.36659e-16
3.94398e-16
4.36364e-16
4.32637e-16
3.995e-16
4.30387e-16
3.61756e-16
4.04816e-16
4.19292e-16
4.19227e-16
4.42856e-16
3.92777e-16
3.93929e-16
3.85905e-16
4.0649e-16
4.44234e-16
3.67446e-16
4.01241e-16
4.1319e-16
3.98197e-16
4.41905e-16
3.95162e-16
3.99836e-16
4.14908e-16
3.94969e-16
4.31915e-16
3.87458e-16
4.114e-16
4.19345e-16
3.93057e-16
4.3547e-16
3.8712e-16
4.24059e-16
4.14308e-16
4.04492e-16
4.45184e-16
3.87939e-16
4.21938e-16
4.31232e-16
3.69527e-16
4.15901e-16
3.74662e-16
4.28194e-16
4.17558e-16
4.05994e-16
4.5199e-16
3.80907e-16
4.23589e-16
4.12529e-16
3.80388e-16
4.38633e-16
3.76338e-16
4.14812e-16
4.21547e-16
3.80312e-16
4.30799e-16
4.21469e-16
3.98624e-16
3.98075e-16
4.15592e-16
4.46554e-16
3.91806e-16
4.06106e-16
4.00511e-16
4.22274e-16
4.42112e-16
3.72158e-16
4.13158e-16
3.95443e-16
4.10181e-16
4.42361e-16
3.96235e-16
3.95858e-16
4.17863e-16
3.87229e-16
4.42557e-16
3.68375e-16
4.03102e-16
4.02995e-16
3.99513e-16
4.49063e-16
4.00521e-16
4.31053e-16
3.92801e-16
4.00231e-16
4.42169e-16
3.99096e-16
4.15907e-16
4.31979e-16
3.94017e-16
4.27058e-16
3.8249e-16
4.04593e-16
4.30301e-16
3.77095e-16
4.20917e-16
4.03149e-16
4.11701e-16
3.93482e-16
4.00462e-16
4.41203e-16
3.82872e-16
4.32342e-16
3.93107e-16
4.01181e-16
4.41645e-16
4.37363e-16
4.35359e-16
3.99878e-16
3.97819e-16
4.44666e-16
3.88222e-16
4.10539e-16
4.20079e-16
4.03959e-16
4.52845e-16
3.80617e-16
4.1126e-16
4.02675e-16
4.25942e-16
4.3332e-16
3.8086e-16
4.11692e-16
4.33967e-16
3.86659e-16
4.14146e-16
4.13814e-16
4.20386e-16
4.37321e-16
4.13937e-16
4.41529e-16
3.99639e-16
4.31891e-16
4.05298e-16
4.08026e-16
4.40916e-16
3.94248e-16
4.07722e-16
3.99943e-16
4.048e-16
4.68493e-16
3.66385e-16
4.22665e-16
4.22669e-16
3.9102e-16
4.43133e-16
4.08898e-16
4.08486e-16
4.11009e-16
3.95807e-16
4.51233e-16
3.90708e-16
4.32391e-16