# vtk DataFile Version 1.0
Electron Density - Current Sheet 
ASCII
DATASET STRUCTURED_POINTS
DIMENSIONS 256 128 1
ORIGIN 0 0 0
SPACING 0.15625 0.15625 1
POINT_DATA 32768
SCALARS rhoe float
LOOKUP_TABLE default
-1.69755e-18
-2.36176e-18
-1.78045e-18
-1.73315e-18
-2.45079e-18
-1.30196e-18
-1.86558e-18
-1.95434e-18
-1.89793e-18
-2.20455e-18
-1.53241e-18
-2.07427e-18
-1.74872e-18
-1.79124e-18
-2.55779e-18
-1.59606e-18
-1.95129e-18
-1.84765e-18
-2.0649e-18
-2.11688e-18
-1.51134e-18
-2.23925e-18
-1.72782e-18
-1.86112e-18
-2.52303e-18
-1.47952e-18
-1.92547e-18
-1.64936e-18
-1.96266e-18
-2.52957e-18
-1.46581e-18
-1.85036e-18
-1.83193e-18
-1.87951e-18
-2.5293e-18
-1.23466e-18
-2.02802e-18
-1.7745e-18
-2.06588e-18
-2.48336e-18
-1.33079e-18
-1.82905e-18
-1.85814e-18
-1.90161e-18
-2.20217e-18
-1.3376e-18
-2.02878e-18
-1.95401e-18
-1.90795e-18
-2.25934e-18
-1.40333e-18
-2.06821e-18
-1.87078e-18
-1.68495e-18
-2.35264e-18
-1.68714e-18
-1.86543e-18
-1.85746e-18
-1.78984e-18
-2.24729e-18
-1.39221e-18
-2.10871e-18
-2.06953e-18
-1.78916e-18
-2.47907e-18
-1.21566e-18
-1.94932e-18
-1.89022e-18
-1.98649e-18
-2.50306e-18
-1.52205e-18
-1.94069e-18
-1.80551e-18
-1.86355e-18
-2.51083e-18
-1.48759e-18
-2.00199e-18
-1.79705e-18
-1.89366e-18
-2.17387e-18
-1.23197e-18
-2.12242e-18
-1.83696e-18
-1.93871e-18
-2.44674e-18
-1.41236e-18
-2.02264e-18
-1.70704e-18
-1.89105e-18
-2.437e-18
-1.52309e-18
-1.65965e-18
-1.70719e-18
-1.96575e-18
-2.37187e-18
-1.44348e-18
-1.99293e-18
-1.77108e-18
-1.90181e-18
-2.29574e-18
-1.29238e-18
-1.9093e-18
-1.91126e-18
-1.92073e-18
-2.25453e-18
-1.40247e-18
-2.03791e-18
-1.81662e-18
-1.8642e-18
-2.42248e-18
-1.60633e-18
-2.00848e-18
-1.60882e-18
-1.86031e-18
-2.26632e-18
-1.5541e-18
-2.06062e-18
-1.75347e-18
-1.76725e-18
-2.40861e-18
-1.5233e-18
-2.07996e-18
-1.71913e-18
-1.87863e-18
-2.33591e-18
-1.35505e-18
-2.03027e-18
-1.79986e-18
-1.83905e-18
-2.50744e-18
-1.47731e-18
-2.02952e-18
-1.73065e-18
-1.82268e-18
-2.27055e-18
-1.44547e-18
-1.97917e-18
-1.81439e-18
-1.93694e-18
-2.49624e-18
-1.24657e-18
-1.86449e-18
-1.96227e-18
-1.88021e-18
-2.26725e-18
-1.41133e-18
-1.94532e-18
-1.75639e-18
-2.02045e-18
-2.38494e-18
-1.31152e-18
-2.0114e-18
-1.81951e-18
-1.87736e-18
-2.42245e-18
-1.36543e-18
-2.14991e-18
-1.76363e-18
-2.04716e-18
-2.29686e-18
-1.3037e-18
-2.05591e-18
-1.75497e-18
-1.90301e-18
-2.66063e-18
-1.235e-18
-1.7893e-18
-1.82297e-18
-1.88621e-18
-2.30667e-18
-1.48573e-18
-2.05982e-18
-1.98089e-18
-1.7529e-18
-2.28981e-18
-1.57884e-18
-1.96704e-18
-1.8302e-18
-1.84794e-18
-2.48426e-18
-1.22863e-18
-2.04304e-18
-1.71766e-18
-1.87121e-18
-2.45765e-18
-1.04337e-18
-2.04238e-18
-1.76012e-18
-1.93043e-18
-2.47166e-18
-1.57331e-18
-1.82812e-18
-1.75719e-18
-1.86451e-18
-2.32419e-18
-1.42432e-18
-2.00268e-18
-1.83419e-18
-1.7308e-18
-2.27084e-18
-1.48586e-18
-1.94071e-18
-1.83861e-18
-1.94204e-18
-2.31431e-18
-1.5211e-18
-1.8783e-18
-1.88413e-18
-1.76328e-18
-2.32378e-18
-1.42075e-18
-2.00535e-18
-1.84623e-18
-1.90654e-18
-2.61129e-18
-1.38096e-18
-1.9897e-18
-1.92543e-18
-1.81491e-18
-2.26912e-18
-1.53196e-18
-1.96663e-18
-1.72933e-18
-1.84402e-18
-2.32568e-18
-1.42166e-18
-2.00657e-18
-1.81848e-18
-1.94255e-18
-2.49388e-18
-1.30331e-18
-2.00712e-18
-1.74145e-18
-1.90883e-18
-2.28804e-18
-1.47601e-18
-2.06755e-18
-1.69685e-18
-1.89308e-18
-2.3221e-18
-1.69373e-18
-1.91038e-18
-1.78558e-18
-1.93777e-18
-2.19276e-18
-1.63746e-18
-1.94696e-18
-1.95625e-18
-1.88429e-18
-2.51101e-18
-1.39358e-18
-1.99751e-18
-1.82018e-18
-1.91325e-18
-2.20661e-18
-1.55538e-18
-2.33495e-18
-3.37217e-18
-2.68655e-18
-2.62678e-18
-3.59829e-18
-2.07344e-18
-2.95178e-18
-2.62388e-18
-2.74419e-18
-3.42109e-18
-2.08184e-18
-3.07171e-18
-2.74416e-18
-2.81542e-18
-3.38672e-18
-2.09355e-18
-2.93395e-18
-2.57901e-18
-2.81807e-18
-3.31312e-18
-2.15098e-18
-2.93784e-18
-2.50242e-18
-2.73035e-18
-3.65241e-18
-2.12798e-18
-2.77789e-18
-2.39384e-18
-2.70246e-18
-3.55647e-18
-2.22436e-18
-2.86301e-18
-2.61334e-18
-2.66329e-18
-3.66556e-18
-2.01966e-18
-2.8802e-18
-2.74774e-18
-2.8875e-18
-3.64224e-18
-2.31333e-18
-2.87986e-18
-2.47795e-18
-2.6782e-18
-3.58692e-18
-2.12355e-18
-2.94168e-18
-2.81735e-18
-2.76228e-18
-3.31537e-18
-2.13202e-18
-2.98044e-18
-2.75183e-18
-2.66169e-18
-3.43847e-18
-2.00657e-18
-3.03236e-18
-2.77759e-18
-2.5108e-18
-3.32303e-18
-2.05752e-18
-3.04559e-18
-2.80496e-18
-2.5664e-18
-3.73925e-18
-2.18616e-18
-2.82116e-18
-2.67061e-18
-2.7134e-18
-3.40225e-18
-2.17428e-18
-2.89723e-18
-2.73509e-18
-2.72147e-18
-3.74767e-18
-2.20996e-18
-2.89887e-18
-2.57059e-18
-2.79725e-18
-3.47055e-18
-2.16631e-18
-2.89196e-18
-2.7351e-18
-2.5977e-18
-3.44343e-18
-2.2423e-18
-3.02684e-18
-2.62183e-18
-2.7128e-18
-3.50191e-18
-2.29325e-18
-2.85296e-18
-2.61212e-18
-2.81483e-18
-3.44572e-18
-2.2495e-18
-3.02812e-18
-2.64682e-18
-2.65143e-18
-3.33642e-18
-2.27499e-18
-2.89258e-18
-2.69763e-18
-2.94077e-18
-3.46973e-18
-1.93627e-18
-3.02111e-18
-2.87336e-18
-2.71174e-18
-3.36828e-18
-2.11988e-18
-2.94254e-18
-2.6916e-18
-2.89978e-18
-3.44295e-18
-2.11225e-18
-2.86601e-18
-2.66583e-18
-2.76445e-18
-3.44664e-18
-2.37559e-18
-3.04977e-18
-2.58164e-18
-2.93177e-18
-3.3459e-18
-2.04535e-18
-2.99669e-18
-2.77102e-18
-2.64376e-18
-3.50854e-18
-2.25595e-18
-2.89065e-18
-2.76233e-18
-2.59083e-18
-3.19424e-18
-2.2549e-18
-3.1462e-18
-2.59264e-18
-2.89066e-18
-3.25875e-18
-1.91638e-18
-2.99876e-18
-2.64415e-18
-3.00786e-18
-3.66341e-18
-2.41304e-18
-2.85178e-18
-2.34382e-18
-2.69947e-18
-3.60537e-18
-2.21826e-18
-2.89655e-18
-2.65623e-18
-2.89927e-18
-3.56036e-18
-2.06964e-18
-2.95179e-18
-2.5758e-18
-2.78929e-18
-3.55979e-18
-1.90059e-18
-3.02453e-18
-2.71447e-18
-2.77766e-18
-3.71339e-18
-2.04035e-18
-2.98253e-18
-2.57192e-18
-2.74412e-18
-3.54203e-18
-2.1183e-18
-2.99306e-18
-2.62199e-18
-2.84439e-18
-3.40438e-18
-2.19243e-18
-2.92546e-18
-2.61445e-18
-2.86201e-18
-3.47337e-18
-1.96785e-18
-3.04905e-18
-2.57464e-18
-2.71407e-18
-3.63882e-18
-2.23201e-18
-2.9438e-18
-2.57748e-18
-2.71262e-18
-3.62111e-18
-2.15955e-18
-2.95872e-18
-2.63468e-18
-2.76784e-18
-3.57605e-18
-2.2411e-18
-2.99428e-18
-2.61081e-18
-2.68302e-18
-3.46155e-18
-2.09354e-18
-3.02784e-18
-2.6296e-18
-2.77277e-18
-3.42616e-18
-2.05851e-18
-2.82548e-18
-2.70714e-18
-2.90602e-18
-3.77682e-18
-2.19107e-18
-2.95806e-18
-2.78669e-18
-2.62644e-18
-3.66188e-18
-2.02488e-18
-2.83885e-18
-2.7032e-18
-2.65004e-18
-3.52068e-18
-2.14675e-18
-2.83387e-18
-2.71364e-18
-2.80068e-18
-3.4606e-18
-2.10484e-18
-3.02423e-18
-2.63017e-18
-2.88869e-18
-3.35831e-18
-1.79494e-18
-2.82327e-18
-2.69142e-18
-2.7893e-18
-3.56238e-18
-2.30921e-18
-2.93042e-18
-2.76008e-18
-2.76014e-18
-3.40112e-18
-2.14301e-18
-2.86697e-18
-2.48971e-18
-2.75864e-18
-3.4729e-18
-2.18441e-18
-2.68193e-18
-2.62538e-18
-2.87833e-18
-3.40094e-18
-2.29242e-18
-3.04744e-18
-2.71332e-18
-2.618e-18
-3.41362e-18
-2.43776e-18
-4.4822e-18
-6.38343e-18
-4.72103e-18
-4.86246e-18
-6.84803e-18
-4.2122e-18
-5.23233e-18
-4.79142e-18
-5.13583e-18
-6.42664e-18
-3.61808e-18
-5.49135e-18
-5.14969e-18
-5.21837e-18
-6.50657e-18
-3.86716e-18
-5.44328e-18
-4.85582e-18
-5.18887e-18
-6.06127e-18
-3.78964e-18
-5.42211e-18
-5.19114e-18
-5.06914e-18
-6.30906e-18
-4.28111e-18
-5.47146e-18
-4.97518e-18
-5.29149e-18
-6.57264e-18
-3.63511e-18
-5.51118e-18
-4.83438e-18
-5.14615e-18
-6.43998e-18
-3.87524e-18
-5.18979e-18
-4.80593e-18
-5.52191e-18
-6.32104e-18
-3.93754e-18
-5.50451e-18
-4.68527e-18
-5.19241e-18
-6.69095e-18
-4.06474e-18
-5.68437e-18
-4.82984e-18
-4.92373e-18
-6.19118e-18
-4.08598e-18
-5.59365e-18
-5.27295e-18
-5.00968e-18
-6.06985e-18
-3.76737e-18
-5.50577e-18
-5.15128e-18
-5.40479e-18
-6.53537e-18
-4.05029e-18
-5.4469e-18
-5.06772e-18
-5.0457e-18
-6.36377e-18
-4.03734e-18
-5.42393e-18
-4.7814e-18
-4.85334e-18
-6.1902e-18
-3.88574e-18
-5.03662e-18
-5.02668e-18
-5.13105e-18
-6.32474e-18
-4.19642e-18
-5.71227e-18
-4.97169e-18
-5.07711e-18
-6.90455e-18
-4.26515e-18
-5.18713e-18
-4.58431e-18
-5.24556e-18
-6.46482e-18
-3.74136e-18
-5.55939e-18
-5.12109e-18
-5.22203e-18
-6.40444e-18
-4.326e-18
-5.23868e-18
-4.80478e-18
-5.21446e-18
-6.36526e-18
-4.11736e-18
-5.54726e-18
-4.87567e-18
-5.08948e-18
-6.24152e-18
-3.53775e-18
-5.26544e-18
-5.22036e-18
-5.294e-18
-6.64138e-18
-3.56317e-18
-5.35242e-18
-5.21156e-18
-5.17426e-18
-6.33453e-18
-4.59719e-18
-5.41257e-18
-4.84358e-18
-5.1928e-18
-6.3236e-18
-4.15176e-18
-5.50804e-18
-5.30372e-18
-5.13851e-18
-6.30192e-18
-4.36554e-18
-5.29724e-18
-5.03236e-18
-5.32471e-18
-6.18855e-18
-4.1574e-18
-5.39932e-18
-5.02496e-18
-5.04499e-18
-6.66782e-18
-4.21352e-18
-5.41133e-18
-4.82576e-18
-4.99781e-18
-6.42788e-18
-3.79849e-18
-5.33981e-18
-4.85074e-18
-5.54941e-18
-6.49318e-18
-3.82641e-18
-5.28577e-18
-4.97075e-18
-4.96487e-18
-6.35426e-18
-4.10729e-18
-5.2601e-18
-4.92987e-18
-5.27479e-18
-6.45862e-18
-3.83022e-18
-5.20904e-18
-4.75828e-18
-4.94823e-18
-6.3055e-18
-3.71562e-18
-5.42096e-18
-5.14928e-18
-5.30846e-18
-6.86243e-18
-3.91959e-18
-5.55465e-18
-5.10612e-18
-5.16438e-18
-6.41459e-18
-3.60767e-18
-5.46644e-18
-4.856e-18
-5.05093e-18
-6.04607e-18
-3.69875e-18
-5.52901e-18
-5.1393e-18
-5.20849e-18
-6.40935e-18
-4.09036e-18
-5.47853e-18
-4.84652e-18
-5.35864e-18
-6.32065e-18
-3.54006e-18
-5.56241e-18
-4.84971e-18
-5.03696e-18
-6.91542e-18
-4.11778e-18
-5.51762e-18
-5.00621e-18
-5.28983e-18
-6.65366e-18
-3.79748e-18
-5.31631e-18
-4.87793e-18
-5.02537e-18
-6.49105e-18
-4.15338e-18
-5.64341e-18
-4.88893e-18
-4.91821e-18
-6.49489e-18
-4.12804e-18
-5.16343e-18
-4.80174e-18
-5.21401e-18
-6.76744e-18
-3.88798e-18
-5.23743e-18
-4.9156e-18
-5.49599e-18
-6.3744e-18
-3.77369e-18
-5.20967e-18
-4.84812e-18
-5.07605e-18
-6.73821e-18
-3.92076e-18
-5.50399e-18
-4.93296e-18
-5.13564e-18
-6.32314e-18
-3.7689e-18
-5.92984e-18
-4.96283e-18
-5.32758e-18
-6.35884e-18
-4.11329e-18
-5.47129e-18
-5.0163e-18
-5.27431e-18
-6.48538e-18
-3.9583e-18
-5.30606e-18
-4.94094e-18
-5.1857e-18
-6.37486e-18
-3.64979e-18
-5.3938e-18
-5.234e-18
-5.27565e-18
-6.30874e-18
-3.9714e-18
-5.40589e-18
-4.93486e-18
-5.2549e-18
-6.67471e-18
-4.38412e-18
-5.32611e-18
-4.66275e-18
-4.94188e-18
-6.17681e-18
-4.1319e-18
-5.41723e-18
-4.92936e-18
-4.78059e-18
-6.39252e-18
-4.64947e-18
-8.04893e-18
-1.22031e-17
-8.95012e-18
-8.8712e-18
-1.19373e-17
-7.53163e-18
-1.03369e-17
-8.80135e-18
-9.79478e-18
-1.22105e-17
-7.26173e-18
-1.01837e-17
-9.96161e-18
-9.56463e-18
-1.21092e-17
-7.15518e-18
-9.78118e-18
-8.77712e-18
-9.69584e-18
-1.16102e-17
-8.30021e-18
-9.86918e-18
-8.93901e-18
-8.93045e-18
-1.2121e-17
-8.13954e-18
-9.80044e-18
-9.14532e-18
-9.84355e-18
-1.20644e-17
-7.20914e-18
-1.02724e-17
-9.26622e-18
-9.51257e-18
-1.25404e-17
-7.56313e-18
-1.01481e-17
-9.34277e-18
-1.01744e-17
-1.21277e-17
-7.58598e-18
-9.48759e-18
-8.9763e-18
-1.00349e-17
-1.23288e-17
-8.18921e-18
-1.06162e-17
-9.27976e-18
-9.52755e-18
-1.21785e-17
-7.14148e-18
-9.65608e-18
-8.92639e-18
-9.62227e-18
-1.2072e-17
-8.29188e-18
-1.06157e-17
-8.63695e-18
-9.67825e-18
-1.26923e-17
-7.49811e-18
-1.01318e-17
-9.26038e-18
-9.37228e-18
-1.14367e-17
-7.43202e-18
-1.03333e-17
-9.58239e-18
-9.92561e-18
-1.22718e-17
-7.10708e-18
-9.34557e-18
-9.25739e-18
-9.64886e-18
-1.09689e-17
-7.29676e-18
-9.87396e-18
-9.62266e-18
-9.86415e-18
-1.23851e-17
-7.27136e-18
-1.06109e-17
-8.99826e-18
-1.00258e-17
-1.1967e-17
-7.34578e-18
-9.68622e-18
-9.47857e-18
-9.61188e-18
-1.218e-17
-8.2206e-18
-9.88132e-18
-8.97698e-18
-9.46675e-18
-1.26065e-17
-7.67144e-18
-1.02e-17
-9.12764e-18
-9.63903e-18
-1.27259e-17
-7.52853e-18
-9.70017e-18
-9.0263e-18
-9.41112e-18
-1.18542e-17
-7.43897e-18
-9.82547e-18
-9.74748e-18
-9.85754e-18
-1.25578e-17
-7.7753e-18
-9.71239e-18
-9.03178e-18
-9.52254e-18
-1.26568e-17
-7.7287e-18
-9.64031e-18
-9.4365e-18
-1.00932e-17
-1.2388e-17
-8.14418e-18
-1.00766e-17
-9.18398e-18
-9.42619e-18
-1.10071e-17
-7.61772e-18
-1.01598e-17
-9.55222e-18
-9.37832e-18
-1.22442e-17
-7.89184e-18
-1.03453e-17
-9.66283e-18
-9.36629e-18
-1.23119e-17
-7.89377e-18
-1.01488e-17
-9.24102e-18
-9.9628e-18
-1.17887e-17
-6.54446e-18
-1.02763e-17
-9.53589e-18
-9.67673e-18
-1.21774e-17
-6.84869e-18
-9.81042e-18
-9.29457e-18
-1.01706e-17
-1.14939e-17
-8.01302e-18
-1.00682e-17
-9.66941e-18
-9.45994e-18
-1.2156e-17
-7.2048e-18
-1.05273e-17
-9.22426e-18
-9.90903e-18
-1.20223e-17
-6.79347e-18
-9.52973e-18
-9.88591e-18
-9.2429e-18
-1.22708e-17
-8.40215e-18
-1.00601e-17
-8.83565e-18
-9.54384e-18
-1.21564e-17
-7.00651e-18
-1.07635e-17
-9.35852e-18
-9.97461e-18
-1.19882e-17
-7.33794e-18
-1.08709e-17
-8.91208e-18
-9.70809e-18
-1.15651e-17
-7.00044e-18
-1.05317e-17
-8.78243e-18
-9.54238e-18
-1.21951e-17
-7.69739e-18
-9.86409e-18
-9.33322e-18
-9.26067e-18
-1.16792e-17
-7.12459e-18
-1.02947e-17
-9.20747e-18
-9.93208e-18
-1.28952e-17
-7.58003e-18
-9.51514e-18
-9.3307e-18
-9.91138e-18
-1.1828e-17
-7.25817e-18
-1.00756e-17
-9.44267e-18
-1.03682e-17
-1.23081e-17
-7.24656e-18
-1.00473e-17
-9.06102e-18
-9.5324e-18
-1.18193e-17
-7.62141e-18
-1.00992e-17
-9.7511e-18
-9.15136e-18
-1.23253e-17
-7.35059e-18
-9.95076e-18
-8.82323e-18
-9.45344e-18
-1.2278e-17
-7.54235e-18
-1.00658e-17
-9.78432e-18
-9.30653e-18
-1.16303e-17
-7.72735e-18
-1.03931e-17
-8.83419e-18
-9.82865e-18
-1.28721e-17
-7.19425e-18
-1.04778e-17
-9.05409e-18
-9.62935e-18
-1.18617e-17
-7.9363e-18
-1.00495e-17
-8.88055e-18
-9.75666e-18
-1.2211e-17
-6.66266e-18
-1.03217e-17
-9.02192e-18
-1.01669e-17
-1.16771e-17
-7.71201e-18
-1.04227e-17
-9.29964e-18
-9.35194e-18
-1.18629e-17
-7.75615e-18
-1.02477e-17
-8.98179e-18
-9.46396e-18
-1.21343e-17
-7.48008e-18
-1.54184e-17
-2.35978e-17
-1.80624e-17
-1.76403e-17
-2.25994e-17
-1.56048e-17
-1.86235e-17
-1.76587e-17
-1.84033e-17
-2.16985e-17
-1.37285e-17
-1.9669e-17
-1.80728e-17
-1.84606e-17
-2.14513e-17
-1.45226e-17
-1.91131e-17
-1.72249e-17
-1.81828e-17
-2.21985e-17
-1.4092e-17
-1.88779e-17
-1.65823e-17
-1.71139e-17
-2.31571e-17
-1.3512e-17
-1.95746e-17
-1.67907e-17
-1.80268e-17
-2.2784e-17
-1.4594e-17
-1.92353e-17
-1.69118e-17
-1.7736e-17
-2.24419e-17
-1.60099e-17
-1.83474e-17
-1.72631e-17
-1.64519e-17
-2.16936e-17
-1.40942e-17
-1.85789e-17
-1.71007e-17
-1.87432e-17
-2.1901e-17
-1.44343e-17
-1.7838e-17
-1.78074e-17
-1.8413e-17
-2.25922e-17
-1.30663e-17
-1.97062e-17
-1.69688e-17
-1.79079e-17
-2.24215e-17
-1.42819e-17
-1.85784e-17
-1.715e-17
-1.79468e-17
-2.20424e-17
-1.54127e-17
-1.93856e-17
-1.62619e-17
-1.78429e-17
-2.19076e-17
-1.37807e-17
-1.96518e-17
-1.75312e-17
-1.69293e-17
-2.38371e-17
-1.43812e-17
-1.90345e-17
-1.7243e-17
-1.72946e-17
-2.14159e-17
-1.44816e-17
-1.90402e-17
-1.67962e-17
-1.86686e-17
-2.36625e-17
-1.31016e-17
-1.86634e-17
-1.77412e-17
-1.81828e-17
-2.25498e-17
-1.46958e-17
-1.84427e-17
-1.73556e-17
-1.86774e-17
-2.38284e-17
-1.34534e-17
-1.90074e-17
-1.66222e-17
-1.65664e-17
-2.19027e-17
-1.41553e-17
-1.91416e-17
-1.78056e-17
-1.70988e-17
-2.44321e-17
-1.5769e-17
-1.89528e-17
-1.70898e-17
-1.76737e-17
-2.19933e-17
-1.45606e-17
-1.89838e-17
-1.78118e-17
-1.86926e-17
-2.19141e-17
-1.46316e-17
-1.97694e-17
-1.76245e-17
-1.69883e-17
-2.24408e-17
-1.40647e-17
-1.84554e-17
-1.7047e-17
-1.82295e-17
-2.19349e-17
-1.4565e-17
-1.8126e-17
-1.6992e-17
-1.69512e-17
-2.37541e-17
-1.44887e-17
-1.90412e-17
-1.65371e-17
-1.8011e-17
-2.17916e-17
-1.2546e-17
-1.95032e-17
-1.76524e-17
-1.67058e-17
-2.36858e-17
-1.56621e-17
-1.81615e-17
-1.79259e-17
-1.82747e-17
-2.15374e-17
-1.25221e-17
-1.85985e-17
-1.75585e-17
-1.86247e-17
-2.37471e-17
-1.38676e-17
-1.82733e-17
-1.7223e-17
-1.79759e-17
-2.13222e-17
-1.4952e-17
-1.86928e-17
-1.80202e-17
-1.72975e-17
-2.21482e-17
-1.48938e-17
-2.02028e-17
-1.68997e-17
-1.75876e-17
-2.22466e-17
-1.38338e-17
-1.94421e-17
-1.68112e-17
-1.65766e-17
-2.28732e-17
-1.40454e-17
-1.92252e-17
-1.70316e-17
-1.78572e-17
-2.33901e-17
-1.45192e-17
-1.79199e-17
-1.71225e-17
-1.83294e-17
-2.33393e-17
-1.48166e-17
-1.89995e-17
-1.63218e-17
-1.79841e-17
-2.2759e-17
-1.53967e-17
-2.03771e-17
-1.60754e-17
-1.84678e-17
-2.26787e-17
-1.31398e-17
-1.91445e-17
-1.72614e-17
-1.76751e-17
-2.11602e-17
-1.43429e-17
-1.98622e-17
-1.73349e-17
-1.7211e-17
-2.24114e-17
-1.26563e-17
-1.86739e-17
-1.7319e-17
-1.85525e-17
-2.24855e-17
-1.27359e-17
-1.88646e-17
-1.79464e-17
-1.94038e-17
-2.28034e-17
-1.44226e-17
-1.91899e-17
-1.64259e-17
-1.68782e-17
-2.37827e-17
-1.44563e-17
-1.82419e-17
-1.63863e-17
-1.78982e-17
-2.35931e-17
-1.5004e-17
-1.79352e-17
-1.71981e-17
-1.84643e-17
-2.08789e-17
-1.36788e-17
-1.91117e-17
-1.82286e-17
-1.81206e-17
-2.18581e-17
-1.27323e-17
-1.84386e-17
-1.69354e-17
-1.84123e-17
-2.47991e-17
-1.41684e-17
-1.91749e-17
-1.66858e-17
-1.72665e-17
-2.296e-17
-1.49707e-17
-1.99162e-17
-1.54906e-17
-1.73616e-17
-2.28579e-17
-1.42433e-17
-1.89536e-17
-1.74493e-17
-1.84842e-17
-2.26534e-17
-1.39254e-17
-1.99811e-17
-1.67903e-17
-1.83617e-17
-2.32029e-17
-1.40754e-17
-1.85444e-17
-1.58755e-17
-1.87255e-17
-2.15325e-17
-1.40042e-17
-2.67937e-17
-3.96718e-17
-3.24716e-17
-3.29045e-17
-3.99413e-17
-2.41331e-17
-3.53011e-17
-3.11498e-17
-3.36764e-17
-4.39455e-17
-2.66759e-17
-3.51334e-17
-3.21868e-17
-3.1999e-17
-4.11838e-17
-2.68656e-17
-3.6518e-17
-3.17208e-17
-3.31964e-17
-4.28678e-17
-2.57209e-17
-3.46531e-17
-3.17496e-17
-3.34451e-17
-4.28655e-17
-2.73184e-17
-3.58601e-17
-3.10921e-17
-3.34139e-17
-4.21595e-17
-2.85707e-17
-3.60115e-17
-3.17518e-17
-3.42445e-17
-3.96114e-17
-2.63498e-17
-3.55987e-17
-3.38963e-17
-3.30347e-17
-3.99663e-17
-2.81232e-17
-3.65033e-17
-3.06485e-17
-3.45384e-17
-4.39413e-17
-2.50942e-17
-3.25207e-17
-3.16686e-17
-3.4994e-17
-4.6457e-17
-2.75666e-17
-3.25678e-17
-3.02332e-17
-3.2764e-17
-4.27994e-17
-2.72988e-17
-3.37856e-17
-3.12068e-17
-3.33512e-17
-4.34383e-17
-2.89917e-17
-3.50256e-17
-3.08492e-17
-3.45949e-17
-4.31183e-17
-2.711e-17
-3.43258e-17
-3.28099e-17
-3.30233e-17
-4.02421e-17
-2.43068e-17
-3.65923e-17
-3.18572e-17
-3.43218e-17
-4.27904e-17
-2.70623e-17
-3.6009e-17
-3.27955e-17
-3.35091e-17
-4.43209e-17
-2.43016e-17
-3.47999e-17
-3.16503e-17
-3.45218e-17
-4.29375e-17
-2.74189e-17
-3.40288e-17
-3.19223e-17
-3.51512e-17
-4.17765e-17
-2.53712e-17
-3.57053e-17
-3.07952e-17
-3.33573e-17
-4.20855e-17
-2.68206e-17
-3.61559e-17
-3.08529e-17
-3.47119e-17
-4.3809e-17
-2.62611e-17
-3.43762e-17
-3.17884e-17
-3.13602e-17
-4.05263e-17
-2.82169e-17
-3.45097e-17
-3.16366e-17
-3.33825e-17
-4.14998e-17
-2.89223e-17
-3.51054e-17
-3.14755e-17
-3.21799e-17
-4.14224e-17
-2.79794e-17
-3.53892e-17
-3.34891e-17
-3.28369e-17
-4.08713e-17
-2.71476e-17
-3.47329e-17
-3.15832e-17
-3.4503e-17
-4.35578e-17
-2.47587e-17
-3.38597e-17
-3.27989e-17
-3.23415e-17
-4.29999e-17
-2.32654e-17
-3.36405e-17
-3.10621e-17
-3.52734e-17
-4.22024e-17
-2.49224e-17
-3.55829e-17
-3.24684e-17
-3.34006e-17
-4.12741e-17
-2.65878e-17
-3.46923e-17
-3.11154e-17
-3.29745e-17
-4.60687e-17
-2.42167e-17
-3.39871e-17
-3.18681e-17
-3.33836e-17
-4.2578e-17
-2.83223e-17
-3.58842e-17
-3.32223e-17
-3.25532e-17
-4.24629e-17
-2.60717e-17
-3.48269e-17
-3.16083e-17
-3.45465e-17
-3.9751e-17
-2.63853e-17
-3.74051e-17
-3.25715e-17
-3.22277e-17
-4.12593e-17
-2.72812e-17
-3.43076e-17
-3.31904e-17
-3.38603e-17
-4.3354e-17
-2.63227e-17
-3.21639e-17
-3.19714e-17
-3.62117e-17
-4.25066e-17
-2.89877e-17
-3.38932e-17
-3.27672e-17
-3.17817e-17
-4.22607e-17
-2.92353e-17
-3.33725e-17
-3.13537e-17
-3.42596e-17
-4.29753e-17
-2.41593e-17
-3.53894e-17
-3.24005e-17
-3.21931e-17
-4.30964e-17
-2.55541e-17
-3.59665e-17
-3.28125e-17
-3.28215e-17
-4.16072e-17
-2.50807e-17
-3.59682e-17
-3.24808e-17
-3.31535e-17
-4.07805e-17
-2.47452e-17
-3.51889e-17
-3.25171e-17
-3.6404e-17
-4.3728e-17
-2.48707e-17
-3.47635e-17
-3.24293e-17
-3.1161e-17
-4.15848e-17
-2.59992e-17
-3.5122e-17
-3.25503e-17
-3.57704e-17
-4.30353e-17
-2.62112e-17
-3.67801e-17
-3.43787e-17
-3.38932e-17
-4.03256e-17
-2.48227e-17
-3.65278e-17
-2.99705e-17
-3.38201e-17
-4.3665e-17
-2.68531e-17
-3.48182e-17
-3.22235e-17
-3.28792e-17
-4.22104e-17
-2.42435e-17
-3.60858e-17
-3.31441e-17
-3.32884e-17
-4.0637e-17
-2.59735e-17
-3.4613e-17
-2.9997e-17
-3.38338e-17
-4.41662e-17
-2.71755e-17
-3.87644e-17
-3.20363e-17
-3.27716e-17
-4.2955e-17
-2.49946e-17
-3.39169e-17
-3.18207e-17
-3.20095e-17
-4.07597e-17
-2.68833e-17
-3.73678e-17
-3.27929e-17
-3.2736e-17
-4.23605e-17
-3.02998e-17
-5.44786e-17
-7.69943e-17
-6.00103e-17
-5.46125e-17
-8.09007e-17
-5.03793e-17
-6.63876e-17
-5.65216e-17
-6.22038e-17
-7.73447e-17
-4.82573e-17
-6.4883e-17
-6.34927e-17
-6.18107e-17
-7.51725e-17
-4.97637e-17
-6.92363e-17
-6.23134e-17
-6.09088e-17
-7.55288e-17
-4.70594e-17
-6.76178e-17
-5.97753e-17
-6.36975e-17
-8.1431e-17
-4.95799e-17
-6.81788e-17
-6.106e-17
-6.31707e-17
-7.54801e-17
-4.92523e-17
-6.45082e-17
-6.08163e-17
-6.04652e-17
-7.55034e-17
-5.08578e-17
-6.7278e-17
-6.15818e-17
-6.38033e-17
-7.4422e-17
-4.78175e-17
-6.64553e-17
-6.16514e-17
-6.64359e-17
-8.51457e-17
-4.64919e-17
-6.19386e-17
-5.84534e-17
-6.12914e-17
-8.27715e-17
-5.32732e-17
-6.43299e-17
-6.25061e-17
-5.90563e-17
-7.63017e-17
-4.82541e-17
-6.98351e-17
-6.28081e-17
-6.3398e-17
-8.08456e-17
-4.94812e-17
-6.2615e-17
-6.17775e-17
-6.45986e-17
-8.34318e-17
-5.00981e-17
-6.58101e-17
-5.93712e-17
-6.27936e-17
-7.82014e-17
-4.64673e-17
-6.5811e-17
-6.33388e-17
-6.24962e-17
-7.73535e-17
-5.18501e-17
-6.87158e-17
-5.76059e-17
-6.15523e-17
-7.76292e-17
-4.16143e-17
-6.30376e-17
-6.26784e-17
-6.55261e-17
-7.92337e-17
-4.67865e-17
-6.5532e-17
-5.43912e-17
-6.34695e-17
-8.36856e-17
-5.30319e-17
-6.54109e-17
-6.01222e-17
-5.95981e-17
-7.8266e-17
-5.11902e-17
-6.77003e-17
-6.31265e-17
-6.27436e-17
-7.76198e-17
-4.7008e-17
-6.3593e-17
-5.90933e-17
-6.61756e-17
-7.83156e-17
-5.34918e-17
-6.74048e-17
-5.84246e-17
-6.15456e-17
-7.57113e-17
-5.02368e-17
-6.81596e-17
-5.85703e-17
-6.14081e-17
-7.86462e-17
-5.18813e-17
-6.45873e-17
-5.83651e-17
-6.40215e-17
-7.14231e-17
-5.12234e-17
-6.67657e-17
-6.08913e-17
-6.34144e-17
-8.26575e-17
-5.17124e-17
-6.20117e-17
-6.02146e-17
-6.40702e-17
-7.87501e-17
-4.55219e-17
-6.36855e-17
-6.07066e-17
-6.82269e-17
-7.79795e-17
-4.36222e-17
-6.68473e-17
-5.99421e-17
-5.96538e-17
-8.08444e-17
-5.05841e-17
-6.64886e-17
-6.08136e-17
-6.07995e-17
-8.71802e-17
-4.87452e-17
-6.85857e-17
-5.64085e-17
-6.19962e-17
-8.24514e-17
-4.54343e-17
-6.73548e-17
-5.93385e-17
-6.33146e-17
-7.69703e-17
-5.30184e-17
-6.42318e-17
-5.82821e-17
-6.26136e-17
-7.46279e-17
-5.80223e-17
-6.54768e-17
-5.73849e-17
-5.99867e-17
-7.8333e-17
-4.94339e-17
-6.72648e-17
-6.32343e-17
-6.28496e-17
-7.71949e-17
-4.77536e-17
-6.65448e-17
-5.9826e-17
-6.66084e-17
-7.81632e-17
-4.94009e-17
-6.49774e-17
-5.96044e-17
-6.17079e-17
-7.48905e-17
-4.97779e-17
-6.49257e-17
-6.30876e-17
-6.08593e-17
-8.02828e-17
-4.87237e-17
-6.50549e-17
-5.98092e-17
-6.4122e-17
-7.71347e-17
-5.43676e-17
-6.37958e-17
-5.7019e-17
-6.23264e-17
-7.94291e-17
-5.26233e-17
-6.76892e-17
-5.59581e-17
-6.11662e-17
-7.96955e-17
-4.86665e-17
-6.37383e-17
-6.04988e-17
-6.94757e-17
-7.75794e-17
-4.92562e-17
-6.66774e-17
-6.19153e-17
-5.79475e-17
-7.85475e-17
-4.36612e-17
-6.47395e-17
-6.52359e-17
-6.2101e-17
-8.01387e-17
-5.17341e-17
-6.68017e-17
-6.14207e-17
-6.50249e-17
-7.31969e-17
-4.95962e-17
-7.15644e-17
-6.03986e-17
-6.13585e-17
-7.4369e-17
-4.61405e-17
-7.03996e-17
-6.22279e-17
-5.87979e-17
-7.5051e-17
-4.72341e-17
-6.56021e-17
-6.17699e-17
-6.52832e-17
-7.9048e-17
-4.17567e-17
-6.53193e-17
-6.20242e-17
-6.76882e-17
-7.52595e-17
-4.44719e-17
-6.83082e-17
-6.21389e-17
-6.13211e-17
-7.81162e-17
-4.58739e-17
-6.7029e-17
-5.78383e-17
-5.92467e-17
-7.40464e-17
-4.94662e-17
-6.98437e-17
-5.86175e-17
-6.13593e-17
-7.98772e-17
-5.62779e-17
-9.73076e-17
-1.4363e-16
-1.20915e-16
-1.11381e-16
-1.40815e-16
-9.22352e-17
-1.20314e-16
-1.10239e-16
-1.17663e-16
-1.43166e-16
-9.74658e-17
-1.19347e-16
-1.09411e-16
-1.21277e-16
-1.50349e-16
-9.35338e-17
-1.29968e-16
-1.16874e-16
-1.1077e-16
-1.44069e-16
-9.09817e-17
-1.19085e-16
-1.10208e-16
-1.22237e-16
-1.49759e-16
-9.23949e-17
-1.20377e-16
-1.13609e-16
-1.21468e-16
-1.37702e-16
-8.58741e-17
-1.23568e-16
-1.13991e-16
-1.2161e-16
-1.48041e-16
-9.49347e-17
-1.21259e-16
-1.17146e-16
-1.15546e-16
-1.48867e-16
-8.40875e-17
-1.19766e-16
-1.15788e-16
-1.15532e-16
-1.5873e-16
-9.10253e-17
-1.17642e-16
-1.1601e-16
-1.19382e-16
-1.49308e-16
-9.91456e-17
-1.2402e-16
-1.0726e-16
-1.14207e-16
-1.48063e-16
-9.42307e-17
-1.16978e-16
-1.13631e-16
-1.21089e-16
-1.47739e-16
-9.15404e-17
-1.18174e-16
-1.14096e-16
-1.15366e-16
-1.48735e-16
-8.80076e-17
-1.20554e-16
-1.16556e-16
-1.18302e-16
-1.3956e-16
-8.55385e-17
-1.1661e-16
-1.11989e-16
-1.24916e-16
-1.36791e-16
-9.04624e-17
-1.24111e-16
-1.14076e-16
-1.19277e-16
-1.51886e-16
-8.75884e-17
-1.27858e-16
-1.19386e-16
-1.21567e-16
-1.5023e-16
-8.35857e-17
-1.25462e-16
-1.10751e-16
-1.07931e-16
-1.47258e-16
-8.94131e-17
-1.21398e-16
-1.18034e-16
-1.14854e-16
-1.50656e-16
-9.65983e-17
-1.1856e-16
-1.17152e-16
-1.22763e-16
-1.34111e-16
-9.44203e-17
-1.16145e-16
-1.0571e-16
-1.1929e-16
-1.52144e-16
-9.77676e-17
-1.23729e-16
-1.18298e-16
-1.1382e-16
-1.50204e-16
-8.86554e-17
-1.24141e-16
-1.10481e-16
-1.18986e-16
-1.46504e-16
-9.17629e-17
-1.16634e-16
-1.15459e-16
-1.24695e-16
-1.38229e-16
-9.41673e-17
-1.34092e-16
-1.04097e-16
-1.16587e-16
-1.54455e-16
-8.93616e-17
-1.22808e-16
-1.11195e-16
-1.21942e-16
-1.4976e-16
-8.94015e-17
-1.20533e-16
-1.11097e-16
-1.13881e-16
-1.5521e-16
-8.62796e-17
-1.23978e-16
-1.13476e-16
-1.19526e-16
-1.49701e-16
-9.4332e-17
-1.25875e-16
-1.12104e-16
-1.1041e-16
-1.49568e-16
-9.81954e-17
-1.22673e-16
-1.06063e-16
-1.23559e-16
-1.50503e-16
-9.17858e-17
-1.25481e-16
-1.09235e-16
-1.18991e-16
-1.43646e-16
-9.21177e-17
-1.21175e-16
-1.03579e-16
-1.19e-16
-1.4768e-16
-9.66148e-17
-1.18506e-16
-1.11643e-16
-1.21329e-16
-1.48658e-16
-8.30634e-17
-1.20474e-16
-1.14317e-16
-1.19639e-16
-1.53464e-16
-8.73498e-17
-1.27769e-16
-1.09526e-16
-1.12433e-16
-1.50966e-16
-9.65803e-17
-1.22951e-16
-1.12194e-16
-1.1498e-16
-1.43484e-16
-9.6518e-17
-1.24159e-16
-1.11622e-16
-1.15795e-16
-1.52816e-16
-8.28307e-17
-1.19434e-16
-1.06933e-16
-1.24643e-16
-1.58195e-16
-1.03395e-16
-1.19896e-16
-1.15545e-16
-1.18989e-16
-1.49231e-16
-8.53135e-17
-1.24582e-16
-1.03717e-16
-1.22808e-16
-1.45943e-16
-8.95842e-17
-1.16059e-16
-1.09641e-16
-1.18002e-16
-1.45733e-16
-9.41243e-17
-1.23113e-16
-1.11759e-16
-1.10009e-16
-1.54298e-16
-1.01423e-16
-1.26594e-16
-1.17626e-16
-1.06647e-16
-1.48459e-16
-9.14821e-17
-1.23874e-16
-1.10656e-16
-1.23696e-16
-1.46614e-16
-8.36969e-17
-1.27945e-16
-1.08451e-16
-1.13448e-16
-1.51898e-16
-9.5739e-17
-1.22536e-16
-1.06743e-16
-1.16649e-16
-1.50046e-16
-8.95779e-17
-1.31382e-16
-1.18474e-16
-1.1091e-16
-1.41475e-16
-9.2654e-17
-1.27995e-16
-1.08556e-16
-1.14215e-16
-1.43452e-16
-9.08053e-17
-1.27867e-16
-1.08376e-16
-1.24305e-16
-1.42639e-16
-9.06814e-17
-1.20192e-16
-1.10679e-16
-1.11221e-16
-1.53387e-16
-9.70931e-17
-1.31151e-16
-1.16152e-16
-1.18771e-16
-1.41995e-16
-9.72429e-17
-1.99425e-16
-2.64329e-16
-2.06588e-16
-2.11778e-16
-2.69385e-16
-1.69121e-16
-2.33014e-16
-2.00111e-16
-2.07491e-16
-2.8169e-16
-1.89559e-16
-2.28448e-16
-1.98998e-16
-2.26723e-16
-2.91597e-16
-1.79615e-16
-2.3705e-16
-2.17877e-16
-2.26939e-16
-2.54673e-16
-1.70099e-16
-2.3109e-16
-2.09778e-16
-2.21292e-16
-2.72172e-16
-1.60853e-16
-2.27854e-16
-2.04955e-16
-2.19591e-16
-2.79634e-16
-1.61508e-16
-2.39891e-16
-2.19506e-16
-2.14869e-16
-2.66718e-16
-1.75783e-16
-2.19342e-16
-2.04669e-16
-2.17055e-16
-2.82666e-16
-1.98757e-16
-2.2098e-16
-2.18738e-16
-2.10877e-16
-2.71206e-16
-1.69437e-16
-2.26502e-16
-2.14299e-16
-2.15626e-16
-2.78491e-16
-1.65688e-16
-2.2437e-16
-2.02362e-16
-2.25315e-16
-2.86337e-16
-1.73998e-16
-2.31854e-16
-2.15106e-16
-2.26188e-16
-2.7471e-16
-1.61024e-16
-2.21287e-16
-2.06961e-16
-2.18489e-16
-2.73526e-16
-1.56826e-16
-2.38717e-16
-2.02553e-16
-2.18391e-16
-2.75133e-16
-1.82038e-16
-2.32978e-16
-2.06051e-16
-2.20442e-16
-2.78872e-16
-1.82835e-16
-2.30015e-16
-2.065e-16
-2.0331e-16
-2.84675e-16
-1.61575e-16
-2.26803e-16
-2.18764e-16
-2.20098e-16
-2.60841e-16
-1.6798e-16
-2.37061e-16
-2.08675e-16
-2.30147e-16
-2.73738e-16
-1.61859e-16
-2.26029e-16
-2.05906e-16
-2.19479e-16
-2.84335e-16
-1.70504e-16
-2.31855e-16
-2.01017e-16
-2.25623e-16
-2.62827e-16
-1.74304e-16
-2.247e-16
-2.04728e-16
-2.25717e-16
-2.72218e-16
-1.62378e-16
-2.24168e-16
-2.03035e-16
-2.23315e-16
-2.75138e-16
-1.71461e-16
-2.33265e-16
-2.00183e-16
-2.2926e-16
-2.8341e-16
-1.75134e-16
-2.42601e-16
-1.98183e-16
-2.11647e-16
-2.83949e-16
-1.73842e-16
-2.22346e-16
-2.09007e-16
-2.1723e-16
-2.76055e-16
-1.5942e-16
-2.31506e-16
-2.21163e-16
-2.17723e-16
-2.69565e-16
-1.73862e-16
-2.29627e-16
-2.15316e-16
-2.27813e-16
-2.79376e-16
-1.59652e-16
-2.27788e-16
-2.06896e-16
-2.34035e-16
-2.86309e-16
-1.5913e-16
-2.06373e-16
-2.0787e-16
-2.16495e-16
-2.71842e-16
-1.68172e-16
-2.18135e-16
-1.96721e-16
-2.34201e-16
-2.84273e-16
-1.56229e-16
-2.23331e-16
-2.16177e-16
-2.14858e-16
-2.87507e-16
-1.86067e-16
-2.29158e-16
-1.93535e-16
-2.11248e-16
-2.70562e-16
-1.74264e-16
-2.41445e-16
-2.12577e-16
-2.30394e-16
-2.85664e-16
-1.64724e-16
-2.32539e-16
-2.03603e-16
-2.06951e-16
-2.83071e-16
-1.74225e-16
-2.45816e-16
-2.11985e-16
-2.19018e-16
-2.92033e-16
-1.60042e-16
-2.25342e-16
-2.12401e-16
-2.23746e-16
-2.66406e-16
-1.67775e-16
-2.32076e-16
-1.99706e-16
-2.17875e-16
-2.93336e-16
-1.60316e-16
-2.25401e-16
-2.16178e-16
-2.32053e-16
-2.73598e-16
-1.6018e-16
-2.1854e-16
-2.08886e-16
-2.23774e-16
-2.76472e-16
-1.52931e-16
-2.26493e-16
-2.18098e-16
-2.22621e-16
-2.60997e-16
-1.70787e-16
-2.26083e-16
-2.05591e-16
-2.15985e-16
-2.73526e-16
-1.81276e-16
-2.32159e-16
-2.21998e-16
-2.24759e-16
-2.82697e-16
-1.62298e-16
-2.15537e-16
-2.12045e-16
-2.2203e-16
-2.67723e-16
-1.66713e-16
-2.2095e-16
-2.19338e-16
-2.35282e-16
-2.81582e-16
-1.68465e-16
-2.21416e-16
-2.09705e-16
-2.36149e-16
-2.72995e-16
-1.64825e-16
-2.22021e-16
-2.11909e-16
-2.18026e-16
-2.6249e-16
-1.73764e-16
-2.39272e-16
-2.16705e-16
-2.17249e-16
-2.84015e-16
-1.67374e-16
-2.14719e-16
-2.06985e-16
-2.12094e-16
-2.88635e-16
-1.67058e-16
-2.44928e-16
-1.9632e-16
-2.13366e-16
-2.70163e-16
-1.7704e-16
-2.24982e-16
-2.14819e-16
-2.17476e-16
-2.8875e-16
-1.67314e-16
-2.2177e-16
-2.16262e-16
-2.25125e-16
-2.79401e-16
-1.7868e-16
-3.6255e-16
-4.7018e-16
-4.0454e-16
-3.99192e-16
-4.97403e-16